
variable        mcmoves equal f_montecarlo[1]
variable        mcaccratio equal f_montecarlo[2]/(f_montecarlo[1]+1e-10)

thermo_style	custom step temp etotal press c_p_all v_mcmoves v_mcaccratio

thermo	200

run		${prodlength}
run		20000
WARNING: Fix gcmc is being applied to the default group all (../fix_gcmc.cpp:663)
Per MPI rank memory allocation (min/avg/max) = 2.636 | 2.636 | 2.636 Mbytes
Step Temp TotEng Press c_p_all v_mcmoves v_mcaccratio 
       0   0.96736111   -4.1195203    2.5088063    1.6986932            0            0 
     200   0.96736111   -4.0333268    3.1246917    2.3145787        25000      0.13856 
     400   0.96736111   -4.1253865    2.5562469    1.7461338        50000      0.13952 
     600   0.96736111   -4.2454212    1.6415963   0.83148323        75000      0.13864 
     800   0.96736111   -4.1484031    2.4496001    1.6394871       100000      0.13844 
    1000   0.96736111   -4.1568213    2.5395453    1.7294322       125000      0.13728 
    1200   0.96736111    -4.201722    1.9663691     1.156256       150000   0.13709333 
    1400   0.96736111   -4.2054425    2.2088518    1.3987387       175000   0.13631429 
    1600   0.96736111   -4.2433196    1.9846884    1.1745753       200000     0.136055 
    1800   0.96736111   -4.2219089    2.0140023    1.2038892       225000   0.13534667 
    2000   0.96736111   -4.0368938    2.8066919    1.9965788       250000     0.135204 
    2200   0.96736111   -4.2225387    2.0561187    1.2460056       275000      0.13484 
    2400   0.96736111   -4.1647349    2.4037843    1.5936713       300000      0.13514 
    2600   0.96736111   -4.1991298     2.050871    1.2407579       325000   0.13499385 
    2800   0.96736111   -4.2781051    1.6373005   0.82718742       350000   0.13477429 
    3000   0.96736111   -4.2617667    1.7139117   0.90379864       375000      0.13496 
    3200   0.96736111   -4.0810092    2.4801735    1.6700604       400000    0.1347875 
    3400   0.96736111   -4.1973692    2.0356326    1.2255195       425000       0.1348 
    3600   0.96736111   -4.2797584    1.7335607   0.92344761       450000   0.13475111 
    3800   0.96736111   -4.0732681    2.6955975    1.8854844       475000   0.13474947 
    4000   0.96736111   -4.2273893    1.9294557    1.1193427       500000     0.135038 
    4200   0.96736111   -4.1735238    2.2722689    1.4621558       525000    0.1352019 
    4400   0.96736111   -4.0880994    2.7602204    1.9501074       550000   0.13519091 
    4600   0.96736111   -4.3515087    1.2986823   0.48856925       575000   0.13514435 
    4800   0.96736111   -4.3433768    1.5143996   0.70428656       600000   0.13533333 
    5000   0.96736111   -4.2193988    2.1206495    1.3105364       625000       0.1352 
    5200   0.96736111   -4.1815094    2.1132555    1.3031424       650000   0.13506154 
    5400   0.96736111   -4.0924317    2.5114506    1.7013376       675000   0.13496296 
    5600   0.96736111    -4.187298    1.9734372    1.1633241       700000   0.13483571 
    5800   0.96736111   -4.1477872    2.3095966    1.4994836       725000   0.13495034 
    6000   0.96736111   -4.1052289    2.4486082    1.6384951       750000   0.13487467 
    6200   0.96736111    -4.074297    2.6954391    1.8853261       775000   0.13482452 
    6400   0.96736111   -4.2928132    1.7187894   0.90867632       800000    0.1348925 
    6600   0.96736111    -4.185591    2.0360596    1.2259465       825000   0.13487394 
    6800   0.96736111   -4.2214193    1.8285325    1.0184195       850000   0.13496118 
    7000   0.96736111   -4.1252937    2.4899167    1.6798036       875000   0.13492343 
    7200   0.96736111   -4.1815288    2.3577804    1.5476673       900000   0.13495444 
    7400   0.96736111    -4.190513    2.0350225    1.2249094       925000   0.13501622 
    7600   0.96736111   -4.3072562    1.6970567   0.88694363       950000   0.13494211 
    7800   0.96736111   -4.0941367    2.5807591     1.770646       975000    0.1348841 
    8000   0.96736111    -4.148008    2.3321364    1.5220233      1000000     0.134852 
    8200   0.96736111   -4.1759154    2.0406406    1.2305275      1025000   0.13496683 
    8400   0.96736111    -4.186732    2.1825137    1.3724006      1050000   0.13493429 
    8600   0.96736111   -4.2538149    1.8792819    1.0691688      1075000   0.13487814 
    8800   0.96736111   -4.1635079    2.3603874    1.5502744      1100000   0.13493273 
    9000   0.96736111   -4.0454157    2.9062437    2.0961306      1125000   0.13498044 
    9200   0.96736111   -4.2644607    1.6251982   0.81508514      1150000   0.13512174 
    9400   0.96736111   -4.2756272     1.705572   0.89545894      1175000   0.13513106 
    9600   0.96736111    -4.127846    2.4102424    1.6001293      1200000   0.13519083 
    9800   0.96736111    -4.103044    2.5835981     1.773485      1225000       0.1352 
   10000   0.96736111   -4.1313569    2.3661633    1.5560502      1250000    0.1352968 
   10200   0.96736111   -4.0794158    2.5323351    1.7222221      1275000   0.13540157 
   10400   0.96736111   -4.2229342    1.9808794    1.1707663      1300000   0.13541231 
   10600   0.96736111   -4.1160405    2.3728539    1.5627409      1325000   0.13550566 
   10800   0.96736111   -4.1961761    2.1004673    1.2903542      1350000   0.13554815 
   11000   0.96736111    -4.271613    1.5213724   0.71125931      1375000   0.13557745 
   11200   0.96736111   -4.1956934    2.0573801    1.2472671      1400000   0.13562929 
   11400   0.96736111   -4.2373062     2.272902    1.4627889      1425000   0.13573684 
   11600   0.96736111   -4.2318142    2.0182195    1.2081065      1450000   0.13562897 
   11800   0.96736111   -4.0942669    2.7780631      1.96795      1475000   0.13556542 
   12000   0.96736111   -4.0672483    2.6497144    1.8396014      1500000   0.13553267 
   12200   0.96736111   -4.0689663    2.7429409    1.9328278      1525000    0.1354977 
   12400   0.96736111   -4.3204787    1.5854033   0.77529022      1550000   0.13546516 
   12600   0.96736111   -4.1595324    2.4450513    1.6349383      1575000    0.1355454 
   12800   0.96736111   -4.2753386    1.8224899    1.0123768      1600000   0.13555312 
   13000   0.96736111   -4.2498195     1.859905     1.049792      1625000   0.13554892 
   13200   0.96736111   -4.1374021    2.4618124    1.6516993      1650000   0.13553818 
   13400   0.96736111   -4.0676363     2.712027    1.9019139      1675000   0.13553672 
   13600   0.96736111   -4.2325639    2.0717703    1.2616572      1700000   0.13550118 
   13800   0.96736111   -4.1892466     2.034325    1.2242119      1725000   0.13551594 
   14000   0.96736111   -4.2477677    1.8147516    1.0046385      1750000   0.13552629 
   14200   0.96736111    -4.287067     1.759882   0.94976896      1775000   0.13554479 
   14400   0.96736111   -4.1382195    2.2769773    1.4668642      1800000     0.135555 
   14600   0.96736111   -4.2785261    1.6859681     0.875855      1825000   0.13550521 
   14800   0.96736111   -4.2981305     1.611773   0.80165993      1850000   0.13554919 
   15000   0.96736111   -4.0692556    2.5927668    1.7826538      1875000   0.13547627 
   15200   0.96736111   -4.1861913    2.0299866    1.2198735      1900000   0.13549421 
   15400   0.96736111   -4.2613942    1.8515406    1.0414276      1925000   0.13549351 
   15600   0.96736111   -4.3220591    1.5150091   0.70489599      1950000   0.13550256 
   15800   0.96736111   -4.2025745    1.9769711     1.166858      1975000   0.13562886 
   16000   0.96736111   -4.1215568    2.3816356    1.5715225      2000000    0.1356085 
   16200   0.96736111   -3.9553039    3.3299099    2.5197968      2025000   0.13563506 
   16400   0.96736111   -4.1712783    2.1390349    1.3289218      2050000   0.13557902 
   16600   0.96736111   -4.3779063    1.0498311   0.23971805      2075000   0.13553253 
   16800   0.96736111   -4.1586258    2.3701859    1.5600728      2100000   0.13555476 
   17000   0.96736111   -4.0194778     3.018603      2.20849      2125000   0.13557694 
   17200   0.96736111   -4.0942743    2.6436304    1.8335173      2150000   0.13556884 
   17400   0.96736111   -4.2040263    2.2819306    1.4718175      2175000   0.13554943 
   17600   0.96736111   -4.1429224    2.2469587    1.4368456      2200000   0.13552273 
   17800   0.96736111   -4.2968824    1.5584279   0.74831481      2225000   0.13549798 
   18000   0.96736111   -4.1405624    2.3342265    1.5241134      2250000   0.13552711 
   18200   0.96736111   -4.0728353    2.6668795    1.8567664      2275000    0.1355578 
   18400   0.96736111   -4.2055756    2.0927608    1.2826477      2300000   0.13551783 
   18600   0.96736111   -4.1351316    2.3712792    1.5611661      2325000   0.13555742 
   18800   0.96736111    -4.243553     1.738915   0.92880189      2350000   0.13552383 
   19000   0.96736111   -4.2359636    1.7782463   0.96813327      2375000   0.13552337 
   19200   0.96736111   -4.2459904    1.8863105    1.0761974      2400000   0.13560292 
   19400   0.96736111   -4.2547493    1.7693428    0.9592297      2425000   0.13556206 
   19600   0.96736111   -4.2984784     1.688042   0.87792888      2450000    0.1356449 
   19800   0.96736111   -4.1265884    2.5827766    1.7726636      2475000   0.13565616 
   20000   0.96736111   -4.2895392    1.6444724   0.83435928      2500000    0.1356736 
Loop time of 87.5227 on 1 procs for 20000 steps with 125 atoms

Performance: 98717.208 tau/day, 228.512 timesteps/s
99.7% CPU use with 1 MPI tasks x no OpenMP threads

MPI task timing breakdown:
Section |  min time  |  avg time  |  max time  |%varavg| %total
---------------------------------------------------------------
Pair    | 5.2081     | 5.2081     | 5.2081     |   0.0 |  5.95
Neigh   | 10.88      | 10.88      | 10.88      |   0.0 | 12.43
Comm    | 0.72791    | 0.72791    | 0.72791    |   0.0 |  0.83
Output  | 0.0039378  | 0.0039378  | 0.0039378  |   0.0 |  0.00
Modify  | 70.592     | 70.592     | 70.592     |   0.0 | 80.66
Other   |            | 0.1106     |            |       |  0.13

Nlocal:        125.000 ave         125 max         125 min
Histogram: 1 0 0 0 0 0 0 0 0 0
Nghost:        1695.00 ave        1695 max        1695 min
Histogram: 1 0 0 0 0 0 0 0 0 0
Neighs:        12057.0 ave       12057 max       12057 min
Histogram: 1 0 0 0 0 0 0 0 0 0

Total # of neighbors = 12057
Ave neighs/atom = 96.456000
Neighbor list builds = 20000
Dangerous builds not checked

variable	p equal f_ave_p

print	"Average virial pressure from MC: $p"
Average virial pressure from MC: 1.33808930993541
Total wall time: 0:02:01
