
variable        mcmoves equal f_montecarlo[1]
variable        mcaccratio equal f_montecarlo[2]/(f_montecarlo[1]+1e-10)

thermo_style	custom step temp etotal press c_p_all v_mcmoves v_mcaccratio

thermo	200

run		${prodlength}
run		20000
WARNING: Fix gcmc is being applied to the default group all (../fix_gcmc.cpp:663)
Per MPI rank memory allocation (min/avg/max) = 2.636 | 2.636 | 2.636 Mbytes
Step Temp TotEng Press c_p_all v_mcmoves v_mcaccratio 
       0    1.9867239    -1.725029    7.3158817    5.6521069            0            0 
     200    1.9867239   -1.8461787    6.6510628     4.987288        25000      0.62288 
     400    1.9867239   -1.7671445    6.9274303    5.2636555        50000       0.6285 
     600    1.9867239   -1.9467324    6.2329542    4.5691794        75000      0.63112 
     800    1.9867239     -1.91541     6.377948    4.7141732       100000      0.62974 
    1000    1.9867239   -1.9629495    6.2206289    4.5568541       125000     0.629024 
    1200    1.9867239   -1.8099202    6.8779267    5.2141519       150000   0.62674667 
    1400    1.9867239   -1.7175302    7.5995484    5.9357736       175000   0.62627429 
    1600    1.9867239   -1.4389849     8.686121    7.0223462       200000     0.625185 
    1800    1.9867239   -1.7053533    7.4080449    5.7442701       225000   0.62523556 
    2000    1.9867239   -1.8060196    6.9202493    5.2564744       250000     0.625676 
    2200    1.9867239   -1.7624777    7.0674989    5.4037241       275000   0.62543636 
    2400    1.9867239   -2.0985403    5.6989751    4.0352003       300000      0.62553 
    2600    1.9867239   -1.8670929    6.6694878     5.005713       325000   0.62557538 
    2800    1.9867239    -1.683067    7.6843692    6.0205943       350000   0.62593429 
    3000    1.9867239      -1.6799    7.3579829    5.6942081       375000   0.62610133 
    3200    1.9867239   -1.8485793    7.1791613    5.5153865       400000    0.6258625 
    3400    1.9867239   -1.8504768    6.6800274    5.0162526       425000   0.62526588 
    3600    1.9867239    -1.535151    8.1453532    6.4815784       450000   0.62508222 
    3800    1.9867239   -1.7585898    6.8739154    5.2101406       475000   0.62477263 
    4000    1.9867239    -1.789572    7.0907759    5.4270011       500000     0.625004 
    4200    1.9867239   -1.7190034    7.3429383    5.6791634       525000   0.62500762 
    4400    1.9867239   -1.9223878    6.4581768    4.7944019       550000      0.62488 
    4600    1.9867239   -1.8466419    6.8550761    5.1913013       575000   0.62509565 
    4800    1.9867239   -2.0011299    6.0526172    4.3888424       600000   0.62516333 
    5000    1.9867239   -1.8400597    6.7223338     5.058559       625000    0.6251344 
    5200    1.9867239   -1.8991881    6.6886703    5.0248955       650000   0.62503231 
    5400    1.9867239   -1.6302835    7.6315519    5.9677771       675000    0.6250163 
    5600    1.9867239   -1.9238488    6.5087702    4.8449953       700000   0.62515714 
    5800    1.9867239    -2.083794    5.6224208     3.958646       725000   0.62530483 
    6000    1.9867239    -1.763285    7.2630108     5.599236       750000   0.62552267 
    6200    1.9867239   -2.0974194    5.4730947    3.8093199       775000   0.62542452 
    6400    1.9867239   -1.7574621    7.1866838    5.5229089       800000   0.62541875 
    6600    1.9867239    -1.985245     6.310523    4.6467482       825000   0.62542909 
    6800    1.9867239   -1.6792744    7.5097239    5.8459491       850000   0.62558118 
    7000    1.9867239   -1.8017764    6.8712692    5.2074944       875000   0.62558057 
    7200    1.9867239   -2.0401596    5.9687636    4.3049888       900000   0.62551889 
    7400    1.9867239   -1.7022217     7.285239    5.6214642       925000   0.62553189 
    7600    1.9867239   -1.7003177    7.1907196    5.5269448       950000   0.62556526 
    7800    1.9867239   -1.9439776    6.2394383    4.5756635       975000    0.6254759 
    8000    1.9867239   -1.6832991    7.5994502    5.9356754      1000000     0.625538 
    8200    1.9867239   -1.7473987    7.1359684    5.4721936      1025000   0.62570341 
    8400    1.9867239   -1.9219755    6.4303907    4.7666159      1050000   0.62568571 
    8600    1.9867239   -1.6646645    7.5368354    5.8730606      1075000   0.62576558 
    8800    1.9867239    -1.889798    6.4101362    4.7463614      1100000   0.62584545 
    9000    1.9867239   -1.6989011    7.2853247    5.6215499      1125000   0.62584267 
    9200    1.9867239   -1.7343752    7.4061755    5.7424007      1150000   0.62574087 
    9400    1.9867239   -1.8069057     6.988392    5.3246172      1175000   0.62558809 
    9600    1.9867239   -1.8665851    6.7450281    5.0812533      1200000   0.62567333 
    9800    1.9867239   -1.6893818    7.3787492    5.7149744      1225000    0.6256302 
   10000    1.9867239   -1.5923563    8.0241217    6.3603469      1250000    0.6256584 
   10200    1.9867239   -1.5164363    8.3106239    6.6468491      1275000   0.62553647 
   10400    1.9867239   -1.5917063    8.0818492    6.4180744      1300000   0.62543154 
   10600    1.9867239    -1.269555    9.4011598     7.737385      1325000   0.62535849 
   10800    1.9867239   -1.5477944    8.1466028     6.482828      1350000    0.6252363 
   11000    1.9867239   -1.7438856    7.2063219    5.5425471      1375000   0.62518327 
   11200    1.9867239   -1.7189006    7.1145322    5.4507574      1400000      0.62511 
   11400    1.9867239   -2.0165975    6.0176736    4.3538988      1425000   0.62510316 
   11600    1.9867239   -1.7017191     7.323316    5.6595412      1450000   0.62501241 
   11800    1.9867239    -1.766434    7.2086617    5.5448869      1475000   0.62505424 
   12000    1.9867239   -1.9091929    6.3192258     4.655451      1500000     0.625094 
   12200    1.9867239   -1.8331591    6.8041334    5.1403586      1525000   0.62516852 
   12400    1.9867239   -1.7963554    6.9056855    5.2419107      1550000   0.62506258 
   12600    1.9867239   -1.7134353    7.4810934    5.8173186      1575000   0.62510667 
   12800    1.9867239   -1.7349012     7.061536    5.3977612      1600000   0.62514375 
   13000    1.9867239   -1.7299337    7.5617132    5.8979384      1625000   0.62500308 
   13200    1.9867239    -1.977155    6.1019465    4.4381717      1650000   0.62510121 
   13400    1.9867239    -1.935012    6.4854552    4.8216804      1675000   0.62514806 
   13600    1.9867239    -1.564025    8.0648032    6.4010284      1700000   0.62504882 
   13800    1.9867239   -1.9614598      6.20438    4.5406051      1725000   0.62496812 
   14000    1.9867239   -1.7811065    7.0573071    5.3935322      1750000     0.624904 
   14200    1.9867239   -1.8546047     6.789547    5.1257722      1775000   0.62485183 
   14400    1.9867239    -1.741663     7.153808    5.4900332      1800000   0.62486278 
   14600    1.9867239   -1.5982276    8.0590037    6.3952289      1825000   0.62490192 
   14800    1.9867239   -1.5215964    8.2243522    6.5605774      1850000   0.62490649 
   15000    1.9867239   -1.5855276     7.874942    6.2111672      1875000   0.62493387 
   15200    1.9867239   -1.8465033    6.7861329    5.1223581      1900000   0.62494263 
   15400    1.9867239   -1.9701333    6.1815975    4.5178227      1925000   0.62490078 
   15600    1.9867239   -1.9304795    6.6003006    4.9365258      1950000   0.62492513 
   15800    1.9867239   -1.7497195    7.3485452    5.6847703      1975000   0.62491494 
   16000    1.9867239   -1.6730644     7.638216    5.9744412      2000000    0.6249515 
   16200    1.9867239   -1.5074821    8.2625857    6.5988109      2025000   0.62495457 
   16400    1.9867239   -1.8862449    6.5285203    4.8647455      2050000   0.62487366 
   16600    1.9867239   -1.8111391    6.9489056    5.2851307      2075000   0.62487181 
   16800    1.9867239   -1.6821314     7.719787    6.0560122      2100000   0.62493381 
   17000    1.9867239   -1.9329585    6.4267821    4.7630073      2125000   0.62494024 
   17200    1.9867239   -1.4055641    8.6971828    7.0334079      2150000   0.62496512 
   17400    1.9867239   -1.6030109     7.825289    6.1615142      2175000   0.62490667 
   17600    1.9867239   -1.8341326     6.829111    5.1653362      2200000   0.62495636 
   17800    1.9867239   -1.7831406    7.0520589    5.3882841      2225000   0.62499236 
   18000    1.9867239   -1.7560825    7.1797626    5.5159878      2250000   0.62499733 
   18200    1.9867239   -1.5876046    8.1804643    6.5166895      2275000   0.62483385 
   18400    1.9867239   -1.7325118    7.2983182    5.6345434      2300000   0.62482217 
   18600    1.9867239   -1.8553352     6.699864    5.0360892      2325000   0.62488946 
   18800    1.9867239   -1.7137607    7.4480503    5.7842755      2350000   0.62484894 
   19000    1.9867239   -1.8977394     6.442426    4.7786512      2375000   0.62492253 
   19200    1.9867239   -1.9353376     6.203248    4.5394732      2400000   0.62496375 
   19400    1.9867239   -1.9758204     6.121095    4.4573202      2425000   0.62497979 
   19600    1.9867239   -1.8132626    6.7130266    5.0492518      2450000   0.62493959 
   19800    1.9867239   -1.8775877    6.5706817    4.9069069      2475000   0.62497374 
   20000    1.9867239   -1.7177655    7.6342317    5.9704569      2500000    0.6249184 
Loop time of 201.243 on 1 procs for 20000 steps with 125 atoms

Performance: 42933.108 tau/day, 99.382 timesteps/s
99.6% CPU use with 1 MPI tasks x no OpenMP threads

MPI task timing breakdown:
Section |  min time  |  avg time  |  max time  |%varavg| %total
---------------------------------------------------------------
Pair    | 8.0776     | 8.0776     | 8.0776     |   0.0 |  4.01
Neigh   | 17.406     | 17.406     | 17.406     |   0.0 |  8.65
Comm    | 1.1063     | 1.1063     | 1.1063     |   0.0 |  0.55
Output  | 0.0050057  | 0.0050057  | 0.0050057  |   0.0 |  0.00
Modify  | 174.44     | 174.44     | 174.44     |   0.0 | 86.68
Other   |            | 0.205      |            |       |  0.10

Nlocal:        125.000 ave         125 max         125 min
Histogram: 1 0 0 0 0 0 0 0 0 0
Nghost:        1646.00 ave        1646 max        1646 min
Histogram: 1 0 0 0 0 0 0 0 0 0
Neighs:        12046.0 ave       12046 max       12046 min
Histogram: 1 0 0 0 0 0 0 0 0 0

Total # of neighbors = 12046
Ave neighs/atom = 96.368000
Neighbor list builds = 20000
Dangerous builds not checked

variable	p equal f_ave_p

print	"Average virial pressure from MC: $p"
Average virial pressure from MC: 5.38486151593251
Total wall time: 0:04:14
