
variable        mcmoves equal f_montecarlo[1]
variable        mcaccratio equal f_montecarlo[2]/(f_montecarlo[1]+1e-10)

thermo_style	custom step temp etotal press c_p_all v_mcmoves v_mcaccratio

thermo	200

run		${prodlength}
run		20000
WARNING: Fix gcmc is being applied to the default group all (../fix_gcmc.cpp:663)
Per MPI rank memory allocation (min/avg/max) = 2.636 | 2.636 | 2.636 Mbytes
Step Temp TotEng Press c_p_all v_mcmoves v_mcaccratio 
       0   0.96736111   -4.1195203    2.5088063    1.6986932            0            0 
     200   0.96736111   -4.1408866    2.3768611     1.566748        25000      0.48464 
     400   0.96736111   -4.2373663    1.8640461    1.0539331        50000      0.48712 
     600   0.96736111   -4.2072197    1.8852538    1.0751408        75000   0.48905333 
     800   0.96736111   -4.1045445    2.6514402    1.8413271       100000      0.48798 
    1000   0.96736111   -4.1170359    2.6121956    1.8020826       125000     0.488008 
    1200   0.96736111   -4.1953882    2.0597948    1.2496817       150000      0.48734 
    1400   0.96736111   -4.1788164    2.2794895    1.4693764       175000       0.4872 
    1600   0.96736111   -4.2214336     1.808758   0.99864487       200000      0.48697 
    1800   0.96736111   -4.2096047    2.1264236    1.3163105       225000   0.48649333 
    2000   0.96736111   -4.2999296    1.6906076   0.88049455       250000     0.486444 
    2200   0.96736111   -3.9693463    3.1741871    2.3640741       275000   0.48662182 
    2400   0.96736111   -4.1715205    2.3235794    1.5134663       300000      0.48696 
    2600   0.96736111   -4.0328986    2.7076246    1.8975116       325000   0.48661231 
    2800   0.96736111    -4.230791    1.8400476    1.0299345       350000   0.48657714 
    3000   0.96736111   -4.1278293    2.4034882    1.5933752       375000   0.48643733 
    3200   0.96736111   -4.1486868     2.274528    1.4644149       400000    0.4854875 
    3400   0.96736111    -4.205384    2.1260555    1.3159424       425000   0.48499059 
    3600   0.96736111   -4.1550008    2.2516043    1.4414912       450000   0.48466667 
    3800   0.96736111   -4.1567111    2.0899663    1.2798532       475000   0.48490526 
    4000   0.96736111   -3.9966574    3.1819948    2.3718818       500000     0.485044 
    4200   0.96736111   -4.2196374    1.9949546    1.1848415       525000   0.48483619 
    4400   0.96736111   -4.1703155    2.1354257    1.3253126       550000   0.48460727 
    4600   0.96736111   -4.2731961    1.8176925    1.0075794       575000   0.48451304 
    4800   0.96736111   -4.1553979    2.2241303    1.4140172       600000     0.484655 
    5000   0.96736111   -4.2723737    1.8180102    1.0078971       625000    0.4849248 
    5200   0.96736111   -4.1872292    2.1978511     1.387738       650000   0.48519692 
    5400   0.96736111   -4.0437514    2.6963043    1.8861912       675000   0.48503704 
    5600   0.96736111   -4.2414715    1.8676376    1.0575245       700000      0.48501 
    5800   0.96736111   -4.0404157    2.7545547    1.9444417       725000   0.48500276 
    6000   0.96736111    -4.157555    2.3663591     1.556246       750000   0.48512667 
    6200   0.96736111   -4.2080428    2.0085764    1.1984633       775000   0.48502452 
    6400   0.96736111   -4.0490792    2.8274412    2.0173281       800000   0.48500125 
    6600   0.96736111   -4.2590365    2.0395104    1.2293973       825000   0.48509455 
    6800   0.96736111   -4.1915132    2.1701776    1.3600645       850000   0.48542588 
    7000   0.96736111   -4.1294755    2.3356814    1.5255683       875000   0.48559886 
    7200   0.96736111   -4.1919804    1.9129374    1.1028244       900000   0.48576778 
    7400   0.96736111   -4.1925723     2.073657    1.2635439       925000   0.48579568 
    7600   0.96736111    -4.133325    2.3829006    1.5727875       950000   0.48603368 
    7800   0.96736111    -4.227905    1.8173332    1.0072201       975000   0.48597128 
    8000   0.96736111   -4.1529992    2.1819571     1.371844      1000000     0.485901 
    8200   0.96736111   -4.2741644    1.6562735   0.84616044      1025000   0.48581854 
    8400   0.96736111   -4.2499492    1.8541038    1.0439907      1050000   0.48586762 
    8600   0.96736111   -4.1380157    2.2694995    1.4593864      1075000   0.48586791 
    8800   0.96736111    -4.118743    2.4287998    1.6186867      1100000   0.48585818 
    9000   0.96736111   -4.1644365    2.2801097    1.4699967      1125000   0.48575911 
    9200   0.96736111   -4.1851686    2.2691106    1.4589975      1150000   0.48587043 
    9400   0.96736111   -4.0404296    2.5729523    1.7628392      1175000   0.48590043 
    9600   0.96736111   -4.0692373    2.5510652    1.7409521      1200000   0.48607167 
    9800   0.96736111   -4.1976002    2.0712609    1.2611479      1225000   0.48604408 
   10000   0.96736111   -4.2139809    1.8131327    1.0030196      1250000     0.486092 
   10200   0.96736111   -4.1900917    2.3140129    1.5038998      1275000   0.48618275 
   10400   0.96736111   -4.1311466    2.2717458    1.4616327      1300000   0.48610923 
   10600   0.96736111   -4.1182417    2.2303562    1.4202431      1325000   0.48596679 
   10800   0.96736111   -3.9860496    3.0508205    2.2407075      1350000   0.48591926 
   11000   0.96736111      -4.2405    1.7287778   0.91866468      1375000   0.48595273 
   11200   0.96736111   -4.1889857    1.9587089    1.1485958      1400000   0.48598786 
   11400   0.96736111   -4.2464291    1.7911757   0.98106263      1425000      0.48596 
   11600   0.96736111   -4.1517988     2.297549     1.487436      1450000   0.48596276 
   11800   0.96736111   -4.1417425     2.590356     1.780243      1475000   0.48589356 
   12000   0.96736111   -4.3211628    1.6336568   0.82354375      1500000   0.48596867 
   12200   0.96736111   -4.1432224    2.4895563    1.6794432      1525000   0.48596328 
   12400   0.96736111   -4.1403168    2.4285094    1.6183964      1550000   0.48595484 
   12600   0.96736111   -4.1383222     2.360312    1.5501989      1575000   0.48596698 
   12800   0.96736111   -4.1966666    2.0859881     1.275875      1600000   0.48592687 
   13000   0.96736111   -4.1937989    2.2967208    1.4866077      1625000   0.48577046 
   13200   0.96736111   -4.1633541    2.3169439    1.5068308      1650000   0.48578303 
   13400   0.96736111   -4.1984647     2.048847    1.2387339      1675000   0.48579284 
   13600   0.96736111   -4.1366161    2.1978333    1.3877202      1700000   0.48586059 
   13800   0.96736111   -4.1464612    2.1854493    1.3753362      1725000    0.4860058 
   14000   0.96736111   -4.3018915    1.4692757    0.6591626      1750000     0.486028 
   14200   0.96736111   -4.2716791    1.6351673   0.82505424      1775000   0.48608394 
   14400   0.96736111    -4.089253    2.3552399    1.5451268      1800000   0.48613944 
   14600   0.96736111   -4.1537463    2.1581821    1.3480691      1825000   0.48615342 
   14800   0.96736111   -3.9950541     2.817272    2.0071589      1850000   0.48613081 
   15000   0.96736111   -4.1594125    2.4392341     1.629121      1875000     0.486016 
   15200   0.96736111   -4.0309307    2.8773366    2.0672235      1900000   0.48598421 
   15400   0.96736111   -4.2227481    2.3474965    1.5373835      1925000   0.48594286 
   15600   0.96736111   -4.1010593    2.5475257    1.7374126      1950000      0.48592 
   15800   0.96736111     -4.12199    2.4275017    1.6173886      1975000   0.48582987 
   16000   0.96736111   -4.2608487    1.7069642   0.89685109      2000000    0.4858575 
   16200   0.96736111   -4.1468225     2.317355    1.5072419      2025000   0.48579457 
   16400   0.96736111   -4.1781226     2.203216     1.393103      2050000   0.48583659 
   16600   0.96736111   -4.0558152    2.7863289    1.9762158      2075000   0.48577398 
   16800   0.96736111    -4.054401    2.6766759    1.8665628      2100000   0.48579571 
   17000   0.96736111   -4.1817301    2.3112243    1.5011112      2125000   0.48575294 
   17200   0.96736111   -4.1911902    2.1478354    1.3377223      2150000   0.48575721 
   17400   0.96736111   -4.2633061    1.9303326    1.1202196      2175000   0.48573149 
   17600   0.96736111   -4.2775285    1.8116825    1.0015694      2200000   0.48573409 
   17800   0.96736111   -4.2106649    2.0175549    1.2074418      2225000   0.48576449 
   18000   0.96736111   -4.1726361    2.1556319    1.3455189      2250000     0.485816 
   18200   0.96736111   -4.0510969       2.8828    2.0726869      2275000   0.48575385 
   18400   0.96736111   -4.2023172    2.0911105    1.2809974      2300000   0.48570522 
   18600   0.96736111    -4.200316    2.2518222    1.4417091      2325000    0.4856757 
   18800   0.96736111   -4.2275125    1.9753084    1.1651953      2350000   0.48560723 
   19000   0.96736111    -4.114501    2.2835357    1.4734226      2375000   0.48560968 
   19200   0.96736111   -4.1871532     2.228731    1.4186179      2400000   0.48568375 
   19400   0.96736111   -4.2817643     1.528537   0.71842388      2425000   0.48564825 
   19600   0.96736111   -4.1159005    2.4398799    1.6297668      2450000   0.48552653 
   19800   0.96736111   -4.0901219     2.790853    1.9807399      2475000   0.48544162 
   20000   0.96736111   -4.2098991    2.1146822    1.3045691      2500000    0.4853608 
Loop time of 111.477 on 1 procs for 20000 steps with 125 atoms

Performance: 77504.879 tau/day, 179.409 timesteps/s
99.6% CPU use with 1 MPI tasks x no OpenMP threads

MPI task timing breakdown:
Section |  min time  |  avg time  |  max time  |%varavg| %total
---------------------------------------------------------------
Pair    | 5.2003     | 5.2003     | 5.2003     |   0.0 |  4.66
Neigh   | 10.9       | 10.9       | 10.9       |   0.0 |  9.78
Comm    | 0.72061    | 0.72061    | 0.72061    |   0.0 |  0.65
Output  | 0.0039412  | 0.0039412  | 0.0039412  |   0.0 |  0.00
Modify  | 94.53      | 94.53      | 94.53      |   0.0 | 84.80
Other   |            | 0.1225     |            |       |  0.11

Nlocal:        125.000 ave         125 max         125 min
Histogram: 1 0 0 0 0 0 0 0 0 0
Nghost:        1705.00 ave        1705 max        1705 min
Histogram: 1 0 0 0 0 0 0 0 0 0
Neighs:        12081.0 ave       12081 max       12081 min
Histogram: 1 0 0 0 0 0 0 0 0 0

Total # of neighbors = 12081
Ave neighs/atom = 96.648000
Neighbor list builds = 20000
Dangerous builds not checked

variable	p equal f_ave_p

print	"Average virial pressure from MC: $p"
Average virial pressure from MC: 1.35018341939436
Total wall time: 0:02:24
