
variable        mcmoves equal f_montecarlo[1]
variable        mcaccratio equal f_montecarlo[2]/(f_montecarlo[1]+1e-10)

thermo_style	custom step temp etotal press c_p_all v_mcmoves v_mcaccratio

thermo	200

run		${prodlength}
run		20000
WARNING: Fix gcmc is being applied to the default group all (../fix_gcmc.cpp:663)
Per MPI rank memory allocation (min/avg/max) = 2.636 | 2.636 | 2.636 Mbytes
Step Temp TotEng Press c_p_all v_mcmoves v_mcaccratio 
       0    3.2024696    1.1515656     12.93312    10.251224            0            0 
     200    3.2024696    1.3522227    14.141313    11.459417        25000      0.64932 
     400    3.2024696    1.4346341    13.929527    11.247631        50000      0.65444 
     600    3.2024696    0.7689543    11.422702    8.7408056        75000   0.65886667 
     800    3.2024696   0.44315706    9.7580568    7.0761601       100000      0.65966 
    1000    3.2024696   0.94384368    12.379637    9.6977402       125000     0.660352 
    1200    3.2024696   0.87382469     11.75772    9.0758232       150000      0.65984 
    1400    3.2024696    0.3118595    9.5604713    6.8785747       175000   0.66049143 
    1600    3.2024696   0.96692021    12.247388    9.5654909       200000      0.66025 
    1800    3.2024696   0.77925928    11.375638    8.6937414       225000   0.65966667 
    2000    3.2024696    1.1422785    12.865913    10.184016       250000      0.65976 
    2200    3.2024696    1.0013551    12.343591    9.6616944       275000   0.65994909 
    2400    3.2024696   0.38559633    9.6842572    7.0023605       300000      0.66052 
    2600    3.2024696   0.32599958    9.5807218    6.8988251       325000   0.66075385 
    2800    3.2024696   0.53539517    10.132801    7.4509041       350000   0.66081429 
    3000    3.2024696    1.0976597    12.617834    9.9359378       375000     0.660392 
    3200    3.2024696   0.50290307    10.226133    7.5442361       400000    0.6603925 
    3400    3.2024696   0.61788447    10.566142    7.8842456       425000   0.65984235 
    3600    3.2024696   0.77968496    11.258358    8.5764617       450000   0.65934222 
    3800    3.2024696     1.046873    12.573503    9.8916065       475000   0.65932211 
    4000    3.2024696   0.80812853    11.556226    8.8743294       500000     0.659132 
    4200    3.2024696   0.66590957     10.96831    8.2864134       525000   0.65890857 
    4400    3.2024696   0.55023386    10.402304    7.7204073       550000   0.65892545 
    4600    3.2024696   0.70540395    11.172234    8.4903377       575000   0.65903478 
    4800    3.2024696   0.35567426    9.4486659    6.7667692       600000   0.65924833 
    5000    3.2024696    1.0063887    12.654469    9.9725726       625000    0.6591312 
    5200    3.2024696   0.84817223    11.955151     9.273254       650000   0.65897692 
    5400    3.2024696   0.86697408    11.860908    9.1790114       675000    0.6590237 
    5600    3.2024696   0.59354694     10.50167    7.8197734       700000   0.65892714 
    5800    3.2024696   0.67024039    10.876944    8.1950474       725000   0.65914621 
    6000    3.2024696   0.82708314    11.545159    8.8632627       750000   0.65932667 
    6200    3.2024696   0.88265234    11.889853    9.2079568       775000   0.65922065 
    6400    3.2024696   0.53127067    10.496124    7.8142273       800000       0.6592 
    6600    3.2024696   0.95766277    11.993403    9.3115068       825000   0.65923636 
    6800    3.2024696   0.73013528    11.191811    8.5099141       850000   0.65914824 
    7000    3.2024696   0.44834521    9.9475945    7.2656979       875000   0.65903543 
    7200    3.2024696   0.59039322    10.488287    7.8063901       900000   0.65908111 
    7400    3.2024696    0.5868733    10.404486    7.7225898       925000   0.65905838 
    7600    3.2024696   0.46343531    10.161191    7.4792943       950000       0.6592 
    7800    3.2024696    0.6349217    10.870035     8.188138       975000   0.65918872 
    8000    3.2024696   0.71867984    11.204038    8.5221412      1000000     0.659119 
    8200    3.2024696   0.83087662    11.621031    8.9391339      1025000   0.65922341 
    8400    3.2024696   0.75889025    11.336921    8.6550247      1050000   0.65937524 
    8600    3.2024696   0.78620176     11.69364    9.0117432      1075000   0.65946791 
    8800    3.2024696   0.76908279    11.410379     8.728482      1100000   0.65948636 
    9000    3.2024696   0.95009057    12.079808    9.3979112      1125000   0.65957867 
    9200    3.2024696   0.97773122    12.129547    9.4476499      1150000   0.65954957 
    9400    3.2024696    1.0143588    12.650088    9.9681911      1175000   0.65953787 
    9600    3.2024696   0.62919603    10.546732    7.8648353      1200000   0.65968917 
    9800    3.2024696   0.51994999    10.237216    7.5553191      1225000   0.65987837 
   10000    3.2024696   0.79792456     11.71371    9.0318135      1250000    0.6599296 
   10200    3.2024696    1.2031558    13.117886    10.435989      1275000   0.65990353 
   10400    3.2024696   0.52365939     10.64262    7.9607231      1300000   0.65975538 
   10600    3.2024696     1.077758    12.520963    9.8390665      1325000   0.65967245 
   10800    3.2024696   0.90017261    11.752836    9.0709398      1350000   0.65973407 
   11000    3.2024696    0.8553244    11.507201    8.8253047      1375000   0.65972655 
   11200    3.2024696    1.1194366    13.033496    10.351599      1400000   0.65975429 
   11400    3.2024696   0.81077541     11.49044     8.808543      1425000   0.65969474 
   11600    3.2024696   0.97098645    12.126958    9.4450609      1450000   0.65976138 
   11800    3.2024696    1.0498329    12.668604    9.9867076      1475000   0.65975322 
   12000    3.2024696   0.78722891    11.325671    8.6437748      1500000     0.659836 
   12200    3.2024696   0.64951921    10.886898    8.2050016      1525000   0.65991607 
   12400    3.2024696   0.70890153     11.10804    8.4261432      1550000   0.65988903 
   12600    3.2024696   0.50304335    10.154038    7.4721417      1575000   0.65991111 
   12800    3.2024696    1.0140283    12.352646     9.670749      1600000   0.66002125 
   13000    3.2024696   0.90624041    11.736287      9.05439      1625000   0.65996246 
   13200    3.2024696   0.60307373    10.283177    7.6012804      1650000      0.66002 
   13400    3.2024696   0.79685905    11.522838    8.8409417      1675000   0.66007463 
   13600    3.2024696   0.62212663    10.843407    8.1615102      1700000   0.66000706 
   13800    3.2024696   0.50728243    10.256637    7.5747409      1725000   0.66000522 
   14000    3.2024696   0.80242789    11.493916    8.8120197      1750000   0.66018286 
   14200    3.2024696   0.54530496    10.449276    7.7673797      1775000   0.66019099 
   14400    3.2024696   0.93284097    12.388664    9.7067678      1800000       0.6602 
   14600    3.2024696   0.87556958    12.070144    9.3882473      1825000   0.66027014 
   14800    3.2024696   0.92898867    11.987456    9.3055594      1850000   0.66018216 
   15000    3.2024696   0.93279023    11.978029     9.296132      1875000   0.66022453 
   15200    3.2024696   0.91797237     12.12379    9.4418931      1900000   0.66024526 
   15400    3.2024696   0.97224169    12.177929    9.4960323      1925000   0.66025558 
   15600    3.2024696   0.77106152    11.326264    8.6443675      1950000   0.66029487 
   15800    3.2024696    1.1355438    13.085284    10.403388      1975000   0.66034076 
   16000    3.2024696   0.65124605    10.874419    8.1925221      2000000    0.6604025 
   16200    3.2024696    1.3146274    13.610986    10.929089      2025000   0.66025284 
   16400    3.2024696   0.94154063    12.092232    9.4103353      2050000   0.66022098 
   16600    3.2024696   0.82170076     11.56931    8.8874136      2075000    0.6601759 
   16800    3.2024696    1.3730546    13.928793    11.246896      2100000   0.66017286 
   17000    3.2024696   0.88361314    11.585715    8.9038179      2125000   0.66020094 
   17200    3.2024696     0.651128    10.940938    8.2590418      2150000   0.66021116 
   17400    3.2024696   0.50600928    10.369105    7.6872081      2175000   0.66029701 
   17600    3.2024696   0.48774387    10.141614    7.4597176      2200000   0.66043545 
   17800    3.2024696   0.85634467    11.553579    8.8716823      2225000   0.66046607 
   18000    3.2024696   0.62771506    10.744985    8.0630881      2250000   0.66051644 
   18200    3.2024696    1.1132417    13.076092    10.394195      2275000   0.66037802 
   18400    3.2024696   0.71573618    11.294265    8.6123683      2300000   0.66030522 
   18600    3.2024696   0.62919276    10.943187    8.2612905      2325000   0.66036989 
   18800    3.2024696   0.52688443    10.336088    7.6541912      2350000   0.66039149 
   19000    3.2024696   0.66227896    11.097543    8.4156463      2375000   0.66045179 
   19200    3.2024696   0.63309796    10.887893    8.2059968      2400000   0.66051292 
   19400    3.2024696   0.96710421    12.126819    9.4449222      2425000   0.66050309 
   19600    3.2024696   0.89460472    12.071372    9.3894757      2450000   0.66048449 
   19800    3.2024696    1.0090991    12.485056     9.803159      2475000    0.6604598 
   20000    3.2024696    1.0428035    12.576264    9.8943669      2500000    0.6604252 
Loop time of 206.603 on 1 procs for 20000 steps with 125 atoms

Performance: 41819.330 tau/day, 96.804 timesteps/s
99.6% CPU use with 1 MPI tasks x no OpenMP threads

MPI task timing breakdown:
Section |  min time  |  avg time  |  max time  |%varavg| %total
---------------------------------------------------------------
Pair    | 8.1516     | 8.1516     | 8.1516     |   0.0 |  3.95
Neigh   | 17.582     | 17.582     | 17.582     |   0.0 |  8.51
Comm    | 1.1036     | 1.1036     | 1.1036     |   0.0 |  0.53
Output  | 0.0050466  | 0.0050466  | 0.0050466  |   0.0 |  0.00
Modify  | 179.55     | 179.55     | 179.55     |   0.0 | 86.91
Other   |            | 0.2095     |            |       |  0.10

Nlocal:        125.000 ave         125 max         125 min
Histogram: 1 0 0 0 0 0 0 0 0 0
Nghost:        1682.00 ave        1682 max        1682 min
Histogram: 1 0 0 0 0 0 0 0 0 0
Neighs:        12036.0 ave       12036 max       12036 min
Histogram: 1 0 0 0 0 0 0 0 0 0

Total # of neighbors = 12036
Ave neighs/atom = 96.288000
Neighbor list builds = 20000
Dangerous builds not checked

variable	p equal f_ave_p

print	"Average virial pressure from MC: $p"
Average virial pressure from MC: 8.67663902397133
Total wall time: 0:04:20
