LAMMPS (29 Sep 2021 - Update 2)
# 3d Lennard-Jones melt

variable    ave_one equal 500
variable    nintervals index 40
variable    mcmaxdispl index 0.1
variable    prodlength equal ${ave_one}*${nintervals}
variable    prodlength equal 500*${nintervals}
variable    prodlength equal 500*40
variable    temperature index 3.0

units		lj
atom_style	atomic

lattice		sc 0.8442
Lattice spacing in x,y,z = 1.0580793 1.0580793 1.0580793
region		box block 0 5 0 5 0 5
create_box	1 box
Created orthogonal box = (0.0000000 0.0000000 0.0000000) to (5.2903965 5.2903965 5.2903965)
  1 by 1 by 1 MPI processor grid
create_atoms	1 box
Created 125 atoms
  using lattice units in orthogonal box = (0.0000000 0.0000000 0.0000000) to (5.2903965 5.2903965 5.2903965)
  create_atoms CPU = 0.000 seconds
mass		1 1.0

velocity	all create 3.0 87287

pair_style	lj/smooth 3.0 3.5
pair_coeff	1 1 1.0 1.0

neighbor	0.3 bin
neigh_modify	every 20 delay 0 check no

fix		1 all nve

thermo		500

thermo_style	custom step temp etotal press
run		2500
Neighbor list info ...
  update every 20 steps, delay 0 steps, check no
  max neighbors/atom: 2000, page size: 100000
  master list distance cutoff = 3.8
  ghost atom cutoff = 3.8
  binsize = 1.9, bins = 3 3 3
  1 neighbor lists, perpetual/occasional/extra = 1 0 0
  (1) pair lj/smooth, perpetual
      attributes: half, newton on
      pair build: half/bin/atomonly/newton
      stencil: half/bin/3d
      bin: standard
Per MPI rank memory allocation (min/avg/max) = 2.635 | 2.635 | 2.635 Mbytes
Step Temp TotEng Press 
       0            3   -1.0476854    3.9138214 
     500    2.3754998   -1.0519801    8.0165648 
    1000    2.3915791   -1.0523855    7.9698354 
    1500    2.3160083   -1.0542784     8.343986 
    2000    2.2641375   -1.0525307    8.5995115 
    2500    2.2041144   -1.0538041    8.9278075 
Loop time of 1.18782 on 1 procs for 2500 steps with 125 atoms

Performance: 909225.813 tau/day, 2104.689 timesteps/s
99.6% CPU use with 1 MPI tasks x no OpenMP threads

MPI task timing breakdown:
Section |  min time  |  avg time  |  max time  |%varavg| %total
---------------------------------------------------------------
Pair    | 1.0136     | 1.0136     | 1.0136     |   0.0 | 85.33
Neigh   | 0.1115     | 0.1115     | 0.1115     |   0.0 |  9.39
Comm    | 0.047311   | 0.047311   | 0.047311   |   0.0 |  3.98
Output  | 0.00013777 | 0.00013777 | 0.00013777 |   0.0 |  0.01
Modify  | 0.0072069  | 0.0072069  | 0.0072069  |   0.0 |  0.61
Other   |            | 0.008053   |            |       |  0.68

Nlocal:        125.000 ave         125 max         125 min
Histogram: 1 0 0 0 0 0 0 0 0 0
Nghost:        1702.00 ave        1702 max        1702 min
Histogram: 1 0 0 0 0 0 0 0 0 0
Neighs:        12022.0 ave       12022 max       12022 min
Histogram: 1 0 0 0 0 0 0 0 0 0

Total # of neighbors = 12022
Ave neighs/atom = 96.176000
Neighbor list builds = 125
Dangerous builds not checked

fix		isokin all temp/rescale 20 ${temperature} ${temperature} 0.02 1.0
fix		isokin all temp/rescale 20 3.0 ${temperature} 0.02 1.0
fix		isokin all temp/rescale 20 3.0 3.0 0.02 1.0

run		50000
Per MPI rank memory allocation (min/avg/max) = 2.636 | 2.636 | 2.636 Mbytes
Step Temp TotEng Press 
    2500    2.2041144   -1.0538041    8.9278075 
    3000            3 0.0056135595    9.0443775 
    3500            3   0.79845355    12.397514 
    4000    3.0150448   0.79452697    12.453319 
    4500            3    0.4727575    11.146517 
    5000            3 -0.045942104    9.1580242 
    5500            3  0.090089701    9.5219171 
    6000            3    0.6912468    12.274181 
    6500            3   0.53865365    11.387488 
    7000            3   0.74411541     12.36245 
    7500            3   0.85069113    13.011231 
    8000            3   0.35021551    10.702929 
    8500            3   0.86478364    12.771268 
    9000            3   0.49564332    11.229223 
    9500            3   0.32719332     10.60419 
   10000            3   0.54093728    11.344372 
   10500            3 -0.0095793541     9.148786 
   11000            3   0.38427916    10.729738 
   11500            3   0.45895856    11.276316 
   12000            3    0.5280156    11.325954 
   12500    2.9954326   0.57157446    11.547504 
   13000            3   0.81576369    12.813867 
   13500            3   0.47082309     11.45524 
   14000            3     0.335466    10.500619 
   14500            3   0.31963402    10.645014 
   15000       3.0116   0.33715666    10.565492 
   15500            3   0.12721217    9.8106278 
   16000            3   0.10176683    9.7508955 
   16500            3   0.52796005    11.531281 
   17000            3   0.57039009    11.657113 
   17500            3   0.23328939    10.110929 
   18000            3   0.74800467    12.223768 
   18500            3   0.42571535    11.099386 
   19000            3    0.1535856     10.06229 
   19500            3   0.43382344    11.390886 
   20000    2.9854679   0.36315022    10.738483 
   20500            3   0.81557317    12.723472 
   21000            3   0.47322418    11.475771 
   21500            3   0.59597399    11.623953 
   22000            3   0.63145996    11.889744 
   22500            3  0.072359442      9.49831 
   23000            3   0.64021169    11.768722 
   23500    2.9870535   0.40906288     11.07648 
   24000            3   0.97264719    13.599358 
   24500            3   0.61297916    11.792441 
   25000            3   0.33998396    10.645124 
   25500            3   0.48719139    11.079188 
   26000    2.9842412   0.39995926    10.958224 
   26500    2.9939777    0.5943134    11.862131 
   27000            3   0.56736864    11.625318 
   27500            3   0.60539244     11.75848 
   28000    3.0107579   0.52283358    11.669902 
   28500            3   0.43407533    11.235288 
   29000            3   0.52548517    11.510475 
   29500    3.0190702    0.3624845    10.398007 
   30000            3    0.6157833    11.775271 
   30500            3   0.57491386    11.479323 
   31000            3   0.22934097    9.9898668 
   31500            3   0.64963062    11.960088 
   32000            3   0.57606697    11.804664 
   32500            3   0.60040766    11.878409 
   33000            3   0.28636175    10.463658 
   33500            3   0.74429467     12.38767 
   34000            3   0.53287802    11.400847 
   34500    3.0188746   0.58549969    11.511661 
   35000            3   0.81759093      12.4624 
   35500            3   0.34090544    10.760216 
   36000            3   0.35204337    10.923103 
   36500            3   0.66092454    12.066326 
   37000            3   0.19664125    9.9815098 
   37500            3    0.7253376    12.342071 
   38000            3   0.48620809    11.266581 
   38500            3   0.30587346    10.675663 
   39000            3   0.18263291    9.9668955 
   39500    2.9909637   0.46618552    11.220865 
   40000            3   0.61235967    11.679322 
   40500            3   0.37888877    10.477055 
   41000            3   0.35670298    10.673136 
   41500            3  -0.13592141    8.3359753 
   42000            3   0.34139757    10.643578 
   42500            3   0.40346733    10.737576 
   43000    2.9880857     0.174281    10.183933 
   43500            3   0.35156216    10.308994 
   44000            3   0.58204685     11.56694 
   44500            3   0.62873261    11.980811 
   45000            3     0.909928    12.948499 
   45500    2.9900925   0.42785963    11.109122 
   46000    3.0054102   0.47809695    11.330096 
   46500            3   0.47694649     11.11514 
   47000            3   0.46495494    11.194143 
   47500            3   0.50716892    11.590106 
   48000            3   0.19527555    9.8066006 
   48500            3   0.69375834    12.443644 
   49000    2.9987046   0.60004007    11.968857 
   49500            3   0.74479179     12.52226 
   50000            3   0.68978467    12.066191 
   50500            3    0.5609779    11.817467 
   51000    3.0102344   0.58724149    11.477628 
   51500            3    0.4971952    11.359679 
   52000            3   0.43530913    11.277475 
   52500            3   0.46886309    11.208248 
Loop time of 23.9681 on 1 procs for 50000 steps with 125 atoms

Performance: 901198.260 tau/day, 2086.107 timesteps/s
99.6% CPU use with 1 MPI tasks x no OpenMP threads

MPI task timing breakdown:
Section |  min time  |  avg time  |  max time  |%varavg| %total
---------------------------------------------------------------
Pair    | 20.452     | 20.452     | 20.452     |   0.0 | 85.33
Neigh   | 2.2518     | 2.2518     | 2.2518     |   0.0 |  9.40
Comm    | 0.94641    | 0.94641    | 0.94641    |   0.0 |  3.95
Output  | 0.0027626  | 0.0027626  | 0.0027626  |   0.0 |  0.01
Modify  | 0.15462    | 0.15462    | 0.15462    |   0.0 |  0.65
Other   |            | 0.1601     |            |       |  0.67

Nlocal:        125.000 ave         125 max         125 min
Histogram: 1 0 0 0 0 0 0 0 0 0
Nghost:        1706.00 ave        1706 max        1706 min
Histogram: 1 0 0 0 0 0 0 0 0 0
Neighs:        12083.0 ave       12083 max       12083 min
Histogram: 1 0 0 0 0 0 0 0 0 0

Total # of neighbors = 12083
Ave neighs/atom = 96.664000
Neighbor list builds = 2500
Dangerous builds not checked

compute	p_all all pressure thermo_temp virial

unfix		isokin

thermo_style	custom step temp etotal press c_p_all
#=====Berendsen MD run====#
reset_timestep	0

fix		ave_p all ave/time ${nintervals} ${ave_one} ${prodlength} c_p_all
fix		ave_p all ave/time 40 ${ave_one} ${prodlength} c_p_all
fix		ave_p all ave/time 40 500 ${prodlength} c_p_all
fix		ave_p all ave/time 40 500 20000 c_p_all
unfix	1
fix		1 all nve
fix		2 all temp/berendsen ${temperature} ${temperature}  0.2
fix		2 all temp/berendsen 3.0 ${temperature}  0.2
fix		2 all temp/berendsen 3.0 3.0  0.2

thermo		200

log		log.berendsen.txt
