
variable        mcmoves equal f_montecarlo[1]
variable        mcaccratio equal f_montecarlo[2]/(f_montecarlo[1]+1e-10)

thermo_style	custom step temp etotal press c_p_all v_mcmoves v_mcaccratio

thermo	200

run		${prodlength}
run		20000
WARNING: Fix gcmc is being applied to the default group all (../fix_gcmc.cpp:663)
Per MPI rank memory allocation (min/avg/max) = 2.636 | 2.636 | 2.636 Mbytes
Step Temp TotEng Press c_p_all v_mcmoves v_mcaccratio 
       0    2.5280928  -0.45095725    9.8321356    7.7149934            0            0 
     200    2.5280928  -0.48285872    9.7798527    7.6627105        25000       0.6426 
     400    2.5280928   -0.4062991    9.9121305    7.7949883        50000      0.64376 
     600    2.5280928  -0.91617704    7.8295835    5.7124412        75000       0.6464 
     800    2.5280928  -0.71985028    8.5899377    6.4727955       100000      0.64596 
    1000    2.5280928  -0.55624173    9.4944818    7.3773396       125000     0.645064 
    1200    2.5280928  -0.57361493    9.4115753    7.2944331       150000   0.64449333 
    1400    2.5280928  -0.96062474     7.703391    5.5862488       175000   0.64531429 
    1600    2.5280928  -0.48946534    9.5537261    7.4365838       200000      0.64537 
    1800    2.5280928  -0.80145561    8.2193812     6.102239       225000   0.64582222 
    2000    2.5280928  -0.80948689    8.2004693    6.0833271       250000      0.64572 
    2200    2.5280928  -0.51848809    9.5269104    7.4097682       275000   0.64618545 
    2400    2.5280928  -0.78867253    8.3990664    6.2819241       300000   0.64649667 
    2600    2.5280928  -0.58183289    9.2880365    7.1708942       325000   0.64618462 
    2800    2.5280928  -0.37936292    10.385103    8.2679609       350000   0.64545143 
    3000    2.5280928   -0.5439242    9.7859691    7.6688268       375000     0.645304 
    3200    2.5280928  -0.54884223    9.3264412     7.209299       400000    0.6450825 
    3400    2.5280928  -0.91935772    7.6674289    5.5502867       425000   0.64492471 
    3600    2.5280928  -0.84268293    8.1649898    6.0478476       450000   0.64483556 
    3800    2.5280928  -0.42722456    10.044865     7.927723       475000   0.64460632 
    4000    2.5280928  -0.29216699    10.584216    8.4670737       500000     0.644212 
    4200    2.5280928  -0.81579364    8.3322618    6.2151196       525000   0.64391048 
    4400    2.5280928   -0.5362131    9.7241269    7.6069847       550000   0.64384727 
    4600    2.5280928  -0.58851894    9.1246994    7.0075572       575000   0.64366435 
    4800    2.5280928  -0.27735788    10.582968    8.4658257       600000     0.643745 
    5000    2.5280928  -0.68038781    8.8918598    6.7747175       625000    0.6435344 
    5200    2.5280928  -0.64351484    9.3704674    7.2533252       650000   0.64367692 
    5400    2.5280928  -0.29923331    10.466279    8.3491366       675000   0.64354667 
    5600    2.5280928  -0.89402746    7.7808826    5.6637404       700000   0.64333143 
    5800    2.5280928  -0.52549734    9.1804368    7.0632946       725000   0.64377103 
    6000    2.5280928  -0.44221019    9.8463406    7.7291984       750000   0.64391067 
    6200    2.5280928  -0.70604568    8.8650229    6.7478807       775000   0.64388516 
    6400    2.5280928   -0.6885688    8.8043855    6.6872433       800000    0.6440325 
    6600    2.5280928  -0.88496497    8.0361065    5.9189643       825000    0.6443297 
    6800    2.5280928  -0.39418839    9.9850045    7.8678623       850000   0.64465059 
    7000    2.5280928  -0.79914487    8.2510269    6.1338847       875000   0.64484343 
    7200    2.5280928   -0.6319413    9.3335444    7.2164022       900000   0.64501556 
    7400    2.5280928  -0.72754045    8.6017999    6.4846577       925000   0.64511568 
    7600    2.5280928  -0.81263076    8.3567009    6.2395587       950000   0.64513368 
    7800    2.5280928  -0.92584005    7.6664239    5.5492817       975000   0.64514051 
    8000    2.5280928  -0.33500119    10.505209    8.3880673      1000000     0.645269 
    8200    2.5280928  -0.78604279    8.4225114    6.3053692      1025000   0.64549463 
    8400    2.5280928  -0.49564602    9.3359761    7.2188338      1050000    0.6455619 
    8600    2.5280928  -0.70656231    8.8024666    6.6853244      1075000   0.64566605 
    8800    2.5280928  -0.53423099    9.6841481    7.5670059      1100000   0.64574545 
    9000    2.5280928  -0.61667618    8.9715822      6.85444      1125000   0.64574489 
    9200    2.5280928  -0.55831454    9.4216153    7.3044731      1150000   0.64581304 
    9400    2.5280928  -0.32208367    10.471338    8.3541956      1175000   0.64580851 
    9600    2.5280928  -0.49953368     9.620343    7.5032008      1200000   0.64587333 
    9800    2.5280928  -0.51223576    9.5066377    7.3894955      1225000   0.64604245 
   10000    2.5280928  -0.61100775     9.250567    7.1334247      1250000    0.6460448 
   10200    2.5280928  -0.16474187    10.980454    8.8633119      1275000   0.64596157 
   10400    2.5280928  -0.45965664    9.6136513    7.4965091      1300000   0.64585923 
   10600    2.5280928  -0.40782735    9.8912895    7.7741473      1325000   0.64588604 
   10800    2.5280928  -0.63093198    9.0220068    6.9048646      1350000   0.64582815 
   11000    2.5280928   -0.7001685    9.0449875    6.9278453      1375000   0.64576509 
   11200    2.5280928  -0.43893714    10.010409    7.8932668      1400000   0.64563071 
   11400    2.5280928  -0.35715455    10.339493    8.2223506      1425000   0.64566246 
   11600    2.5280928  -0.77381533    8.2905368    6.1733946      1450000    0.6456931 
   11800    2.5280928  -0.58414368    8.8998552     6.782713      1475000   0.64580136 
   12000    2.5280928  -0.32093183    10.599678    8.4825362      1500000   0.64587867 
   12200    2.5280928    -0.490516    9.6563919    7.5392497      1525000   0.64587803 
   12400    2.5280928  -0.48630918     9.650459    7.5333168      1550000   0.64580903 
   12600    2.5280928   -0.6229215    9.2796602     7.162518      1575000   0.64580889 
   12800    2.5280928  -0.41151243    10.137823     8.020681      1600000      0.64576 
   13000    2.5280928   -0.4512028    9.9078904    7.7907482      1625000   0.64582708 
   13200    2.5280928  -0.68878129    8.9130167    6.7958744      1650000   0.64596061 
   13400    2.5280928  -0.96270747    7.3764983     5.259356      1675000   0.64595104 
   13600    2.5280928  -0.46388974    9.7674965    7.6503543      1700000   0.64583882 
   13800    2.5280928  -0.74667708    8.5763272     6.459185      1725000   0.64573217 
   14000    2.5280928  -0.86660166    8.0788868    5.9617446      1750000     0.645864 
   14200    2.5280928  -0.86764728    7.8957147    5.7785725      1775000   0.64590366 
   14400    2.5280928  -0.84524177    7.9022592     5.785117      1800000   0.64597944 
   14600    2.5280928  -0.40479273    9.9203166    7.8031744      1825000   0.64594685 
   14800    2.5280928  -0.36147086    10.069956    7.9528135      1850000   0.64595459 
   15000    2.5280928  -0.17945524    11.056981    8.9398385      1875000   0.64591627 
   15200    2.5280928  -0.85595403    8.1702298    6.0530876      1900000   0.64583895 
   15400    2.5280928   -0.6616655     8.880776    6.7636338      1925000   0.64587636 
   15600    2.5280928  -0.74519021    8.6756659    6.5585237      1950000   0.64590615 
   15800    2.5280928  -0.37501783    10.055716    7.9385735      1975000   0.64584101 
   16000    2.5280928    -0.918715    7.9531304    5.8359882      2000000    0.6458535 
   16200    2.5280928  -0.15302122    11.058714    8.9415717      2025000   0.64574074 
   16400    2.5280928  -0.60618103    9.3563526    7.2392104      2050000   0.64579902 
   16600    2.5280928   -0.4895624    9.8028553    7.6857131      2075000    0.6458641 
   16800    2.5280928  -0.45260188    9.9501608    7.8330186      2100000   0.64577667 
   17000    2.5280928  -0.63446842    9.0083287    6.8911865      2125000   0.64572941 
   17200    2.5280928  -0.50374975    9.5160877    7.3989455      2150000      0.64566 
   17400    2.5280928  -0.68431508    8.9424988    6.8253566      2175000   0.64558161 
   17600    2.5280928  -0.55920126    9.3602687    7.2431265      2200000   0.64554409 
   17800    2.5280928  -0.61186979    9.1489571    7.0318149      2225000   0.64551775 
   18000    2.5280928  -0.20509496    10.740146    8.6230042      2250000   0.64551289 
   18200    2.5280928  -0.55818335    9.3201135    7.2029713      2275000    0.6453833 
   18400    2.5280928  -0.65260327    8.9747674    6.8576252      2300000   0.64535783 
   18600    2.5280928  -0.83753824    8.1171622      6.00002      2325000   0.64538667 
   18800    2.5280928  -0.48976313    9.7499711    7.6328289      2350000   0.64537021 
   19000    2.5280928  -0.40426485    9.9276116    7.8104694      2375000   0.64539242 
   19200    2.5280928  -0.80880265    8.3708757    6.2537334      2400000   0.64545125 
   19400    2.5280928  -0.88416689    7.9388657    5.8217235      2425000    0.6454433 
   19600    2.5280928  -0.59569983    9.1987555    7.0816133      2450000   0.64545592 
   19800    2.5280928   -0.3661915    10.281378     8.164236      2475000   0.64545697 
   20000    2.5280928  -0.49798454    9.6676677    7.5505255      2500000    0.6453936 
Loop time of 206.246 on 1 procs for 20000 steps with 125 atoms

Performance: 41891.624 tau/day, 96.971 timesteps/s
99.6% CPU use with 1 MPI tasks x no OpenMP threads

MPI task timing breakdown:
Section |  min time  |  avg time  |  max time  |%varavg| %total
---------------------------------------------------------------
Pair    | 8.2089     | 8.2089     | 8.2089     |   0.0 |  3.98
Neigh   | 17.475     | 17.475     | 17.475     |   0.0 |  8.47
Comm    | 1.133      | 1.133      | 1.133      |   0.0 |  0.55
Output  | 0.005149   | 0.005149   | 0.005149   |   0.0 |  0.00
Modify  | 179.22     | 179.22     | 179.22     |   0.0 | 86.90
Other   |            | 0.2017     |            |       |  0.10

Nlocal:        125.000 ave         125 max         125 min
Histogram: 1 0 0 0 0 0 0 0 0 0
Nghost:        1684.00 ave        1684 max        1684 min
Histogram: 1 0 0 0 0 0 0 0 0 0
Neighs:        12068.0 ave       12068 max       12068 min
Histogram: 1 0 0 0 0 0 0 0 0 0

Total # of neighbors = 12068
Ave neighs/atom = 96.544000
Neighbor list builds = 20000
Dangerous builds not checked

variable	p equal f_ave_p

print	"Average virial pressure from MC: $p"
Average virial pressure from MC: 7.02473336295205
Total wall time: 0:04:20
