thermo_style    custom step time temp ke pe etotal press vol f_tpi[1]
run             500000
Per MPI rank memory allocation (min/avg/max) = 3.654 | 3.654 | 3.654 Mbytes
Step Time Temp KinEng PotEng TotEng Press Volume f_tpi[1] 
   10000           20    1.4058168    2.1066165   -4.7369471   -2.6303305    2.1196838    1315.7895            0 
   10050         20.1    1.4162723    2.1222841    -4.717096    -2.594812    2.2172187    1315.7895  -0.85538754 
   10100         20.2    1.4223051    2.1313242   -4.6994945   -2.5681703    2.2926983    1315.7895   -1.1483872 
   10150         20.3    1.3731866    2.0577202   -4.6942736   -2.6365534     2.339231    1315.7895     2.948639 
   10200         20.4    1.3742924    2.0593771   -4.7272601   -2.6678829    2.2302077    1315.7895    5.7322058 
   10250         20.5    1.3919101    2.0857773   -4.7094372   -2.6236599    2.3187105    1315.7895   -1.1345153 
   10300         20.6    1.3797164     2.067505    -4.682649    -2.615144    2.4562183    1315.7895 -0.0014234565 
   10350         20.7    1.4428205    2.1620665   -4.6990102   -2.5369437    2.3927646    1315.7895    3.5063176 
   10400         20.8    1.4206858    2.1288977   -4.6469906   -2.5180929    2.5930572    1315.7895   0.56602724 
   10450         20.9    1.4020566    2.1009818    -4.648473   -2.5474912    2.5755075    1315.7895 -0.024820365 
   10500           21    1.3996506    2.0973764   -4.6673926   -2.5700162    2.4796763    1315.7895  -0.21424635 
   10550         21.1     1.445007     2.165343   -4.7314809   -2.5661378    2.2114328    1315.7895    6.9950505 
   10600         21.2    1.3857136    2.0764919   -4.6613168   -2.5848249    2.4492705    1315.7895    1.1036674 
   10650         21.3    1.4129862    2.1173598   -4.7057823   -2.5884225    2.3176299    1315.7895   -1.3749739 
   10700         21.4    1.4250101    2.1353776   -4.7116681   -2.5762905    2.3540689    1315.7895   0.16111659 
   10750         21.5    1.3852077    2.0757337   -4.7068528   -2.6311191    2.2990722    1315.7895  -0.67168416 
   10800         21.6     1.434368    2.1494004   -4.7991512   -2.6497508    1.9767473    1315.7895    3.4746596 
   10850         21.7    1.3840333    2.0739738   -4.7307832   -2.6568094    2.2446423    1315.7895    4.0958671 
   10900         21.8    1.3268172    1.9882356   -4.7511836   -2.7629479    2.0909715    1315.7895    2.0213303 
   10950         21.9    1.3765058     2.062694   -4.7892752   -2.7265812    1.9149861    1315.7895     5.734755 
   11000           22    1.3178411    1.9747849   -4.7343863   -2.7596014    2.1683785    1315.7895    1.5359965 
   11050         22.1    1.3378276    2.0047347   -4.7587948   -2.7540601    2.0696533    1315.7895    1.6671424 
   11100         22.2    1.3133499    1.9680548   -4.7941625   -2.8261077    1.9136365    1315.7895    7.0840585 
   11150         22.3     1.342374    2.0115474   -4.7687575   -2.7572101    2.0371701    1315.7895   0.70737397 
   11200         22.4    1.3502532    2.0233545   -4.7594354   -2.7360809    2.0567952    1315.7895     4.818946 
   11250         22.5    1.3557534    2.0315965   -4.7749983   -2.7434018    2.0627068    1315.7895     3.469277 
   11300         22.6    1.2944093    1.9396724   -4.7395503   -2.7998779    2.1927072    1315.7895    9.0742486 
   11350         22.7    1.3408289    2.0092321   -4.7428853   -2.7336533    2.1970621    1315.7895   -1.5019834 
   11400         22.8    1.2978971    1.9448987   -4.7247733   -2.7798746     2.210217    1315.7895    1.9032676 
   11450         22.9    1.3829167    2.0723006   -4.8080166    -2.735716    1.9335456    1315.7895    4.3094702 
   11500           23    1.3440574      2.01407   -4.7456882   -2.7316182    2.1615593    1315.7895  -0.91867424 
   11550         23.1    1.4026629    2.1018904    -4.745978   -2.6440877    2.2582089    1315.7895   -1.0146637 
   11600         23.2    1.4017178    2.1004742   -4.7434073   -2.6429331     2.240913    1315.7895    1.2235316 
   11650         23.3    1.3711464    2.0546629   -4.6950446   -2.6403816    2.3667455    1315.7895  0.054231986 
   11700         23.4    1.4425103    2.1616017   -4.7231083   -2.5615066    2.3461732    1315.7895  -0.23864882 
   11750         23.5     1.418142    2.1250858    -4.697989   -2.5729033    2.3801944    1315.7895    8.9985443 
   11800         23.6     1.412321     2.116363   -4.6217712   -2.5054082    2.7233438    1315.7895    3.1294104 
   11850         23.7    1.4668516    2.1980771   -4.6779567   -2.4798796    2.5801723    1315.7895 -0.0075356135 
   11900         23.8    1.4633587     2.192843   -4.6578768   -2.4650338    2.6745114    1315.7895    2.8977447 
   11950         23.9    1.4511615    2.1745655    -4.690636   -2.5160705     2.460864    1315.7895    0.8402213 
   12000           24    1.4500898    2.1729596   -4.7269786    -2.554019     2.261303    1315.7895    1.5359955 
   12050         24.1    1.4123475    2.1164028   -4.7482509   -2.6318481    2.1172734    1315.7895    2.5886105 
   12100         24.2    1.4220717    2.1309745   -4.7663126   -2.6353381    2.0833824    1315.7895  -0.44929913 
   12150         24.3    1.3894662    2.0821151   -4.6991787   -2.6170636    2.3669794    1315.7895    7.3333746 
   12200         24.4    1.4252759     2.135776   -4.6842359   -2.5484599    2.4522183    1315.7895  -0.96831526 
   12250         24.5    1.4006357    2.0988525   -4.7387286   -2.6398761    2.0929074    1315.7895    4.7123604 
   12300         24.6    1.3338399    1.9987591   -4.7151476   -2.7163885    2.2212678    1315.7895    6.5092679 
   12350         24.7    1.3302369      1.99336   -4.6793169    -2.685957    2.3594561    1315.7895   -1.0005508 
   12400         24.8    1.3533492    2.0279938   -4.7175658   -2.6895719    2.2192585    1315.7895    7.9343315 
   12450         24.9    1.3530169    2.0274958   -4.7757827    -2.748287    1.9676998    1315.7895    3.6614993 
   12500           25    1.3655095     2.046216   -4.7195969   -2.6733809    2.2630096    1315.7895    16.228574 
   12550         25.1    1.3491421    2.0216894   -4.6950341   -2.6733447    2.3469984    1315.7895    3.5330354 
   12600         25.2    1.3826074    2.0718372   -4.7455576   -2.6737204    2.1328862    1315.7895    5.0909583 
   12650         25.3    1.3849681    2.0753747   -4.7291056   -2.6537309    2.1779342    1315.7895   -1.6371206 
   12700         25.4    1.4009712    2.0993554   -4.7092433    -2.609888     2.289759    1315.7895   -1.5057674 
   12750         25.5    1.4225142    2.1316376   -4.7889885   -2.6573509    2.0769842    1315.7895    4.6330677 
   12800         25.6    1.3577581    2.0346006   -4.7326514   -2.6980509    2.2007478    1315.7895    1.2993472 
   12850         25.7    1.3679425    2.0498618   -4.7444525   -2.6945907    2.1421949    1315.7895    1.0300958 
   12900         25.8    1.3192618    1.9769138   -4.7807106   -2.8037968    1.8986825    1315.7895  0.021857079 
   12950         25.9    1.3447382    2.0150901   -4.7502433   -2.7351531    2.0661316    1315.7895    3.3882281 
   13000           26    1.3397862    2.0076697   -4.7617626   -2.7540929    2.0961507    1315.7895    1.7837207 
   13050         26.1    1.3239774    1.9839802   -4.7504275   -2.7664473    2.2365107    1315.7895    2.3862636 
   13100         26.2    1.3095029    1.9622901   -4.7852875   -2.8229974    2.0707955    1315.7895   -1.6333705 
   13150         26.3    1.3235581    1.9833519   -4.7716023   -2.7882504    2.1135526    1315.7895    4.9213801 
   13200         26.4    1.3280021    1.9900111   -4.7530792   -2.7630681     2.082823    1315.7895    4.7807272 
   13250         26.5    1.3469325    2.0183784   -4.7829261   -2.7645478    2.0237127    1315.7895  -0.88013197 
   13300         26.6    1.3733857    2.0580185   -4.7765087   -2.7184902    2.0099298    1315.7895   -1.5676233 
   13350         26.7    1.3660246    2.0469879   -4.7123258   -2.6653379    2.2825145    1315.7895    1.0527291 
   13400         26.8    1.3324201    1.9966316   -4.6658056    -2.669174    2.4743124    1315.7895    1.1565935 
   13450         26.9    1.3496847    2.0225025   -4.7008447   -2.6783422    2.3472249    1315.7895    3.5738399 
   13500           27    1.3592171    2.0367869   -4.6916954   -2.6549085    2.4166016    1315.7895    2.3234864 
   13550         27.1    1.3481908    2.0202639   -4.6965008   -2.6762369    2.3963831    1315.7895    3.2648901 
   13600         27.2    1.3954533    2.0910868   -4.7095937   -2.6185069    2.3344266    1315.7895    0.6554857 
   13650         27.3     1.395461    2.0910983   -4.7660039   -2.6749056    2.1329274    1315.7895    1.2310238 
   13700         27.4    1.4020059    2.1009058   -4.7678144   -2.6669086    2.1030527    1315.7895    4.7072969 
   13750         27.5    1.3964803    2.0926257   -4.7163759   -2.6237502    2.3292984    1315.7895    2.1088487 
   13800         27.6    1.3780765    2.0650477   -4.6986768   -2.6336291    2.3779812    1315.7895    5.8413134 
   13850         27.7     1.374854    2.0602188   -4.6983648    -2.638146    2.3274051    1315.7895    3.8863732 
   13900         27.8    1.3972734    2.0938142   -4.7118687   -2.6180545     2.290409    1315.7895    8.2542012 
   13950         27.9     1.433507    2.1481102   -4.7460694   -2.5979592    2.2501513    1315.7895    2.5747038 
   14000           28    1.3958225      2.09164   -4.6813933   -2.5897532    2.4996679    1315.7895    2.6928012 
   14050         28.1    1.4288458    2.1411254   -4.6603577   -2.5192323    2.5645979    1315.7895    1.6134948 
   14100         28.2    1.4327232    2.1469357   -4.6990293   -2.5520936    2.4661979    1315.7895    9.3641132 
   14150         28.3    1.4062871    2.1073213   -4.6485318   -2.5412105     2.653622    1315.7895    -1.292346 
   14200         28.4    1.4846416    2.2247355   -4.6929452   -2.4682097    2.5313449    1315.7895    1.0535769 
   14250         28.5    1.4262385    2.1372184   -4.6646805   -2.5274621    2.5561389    1315.7895   -0.6190301 
   14300         28.6    1.4300751    2.1429675   -4.6700378   -2.5270702    2.5363698    1315.7895   0.84867134 
   14350         28.7     1.484896    2.2251166   -4.7426754   -2.5175587    2.3179219    1315.7895   -1.1035545 
   14400         28.8    1.4109873    2.1143645   -4.6907538   -2.5763893    2.5171022    1315.7895   0.99310768 
   14450         28.9     1.371502    2.0551957   -4.7104909   -2.6552952    2.3477223    1315.7895    3.2659524 
   14500           29    1.3733231    2.0579247   -4.7528394   -2.6949148    2.1960657    1315.7895   -1.5091163 
   14550         29.1    1.3716075    2.0553539   -4.7605974   -2.7052436    2.1025661    1315.7895  -0.17124669 
   14600         29.2    1.3654207    2.0460829   -4.7466529     -2.70057    2.1114707    1315.7895    6.2473557 
   14650         29.3    1.3919345    2.0858138   -4.7173089   -2.6314951    2.2594305    1315.7895   -1.7244037 
   14700         29.4    1.3856851    2.0764492   -4.7335619   -2.6571127    2.2026258    1315.7895    5.4322946 
   14750         29.5    1.3948515     2.090185   -4.7267533   -2.6365683    2.2208418    1315.7895    4.2183181 
   14800         29.6    1.3866556    2.0779035   -4.7560697   -2.6781662    2.0849945    1315.7895    9.7926622 
   14850         29.7    1.4114812    2.1151046   -4.7553359   -2.6402313    2.1233644    1315.7895   -2.1299328 
   14900         29.8    1.4314103    2.1449683   -4.7353361   -2.5903678    2.2892828    1315.7895    3.0788391 
   14950         29.9    1.4539238    2.1787048     -4.69061   -2.5119052    2.4983381    1315.7895    4.5064115 
   15000           30    1.4027581     2.102033   -4.6879755   -2.5859425    2.4674188    1315.7895    2.1044389 
   15050         30.1    1.4240791    2.1339826   -4.6662493   -2.5322668      2.62556    1315.7895 -0.072534248 
   15100         30.2    1.5341081    2.2988609   -4.7742708   -2.4754098    2.1794681    1315.7895    4.6193566 
   15150         30.3    1.4415192    2.1601166   -4.7139589   -2.5538423    2.3711417    1315.7895   -1.0627106 
   15200         30.4     1.426313      2.13733   -4.6796139   -2.5422839    2.4894002    1315.7895    1.6569581 
   15250         30.5    1.4485304    2.1706229   -4.6838846   -2.5132617    2.5040302    1315.7895    1.1486491 
   15300         30.6    1.4514738    2.1750335   -4.6824053   -2.5073718    2.4532777    1315.7895   0.68123358 
   15350         30.7    1.4707066    2.2038538   -4.7249217   -2.5210679    2.2935056    1315.7895    1.2235496 
   15400         30.8    1.4569464    2.1832342   -4.6474719   -2.4642377    2.5843161    1315.7895   0.40481588 
   15450         30.9    1.4228822    2.1321889   -4.6981359    -2.565947    2.3319187    1315.7895    3.6193076 
   15500           31    1.4135625    2.1182235    -4.706185   -2.5879615    2.2971168    1315.7895   0.23053222 
   15550         31.1      1.39909    2.0965364   -4.7121048   -2.6155684    2.2755522    1315.7895    2.2617062 
   15600         31.2    1.3964735    2.0926155    -4.772587   -2.6799715    2.0391475    1315.7895  -0.60225408 
   15650         31.3    1.3883357     2.080421   -4.7734554   -2.6930344    2.0900968    1315.7895    -1.348695 
   15700         31.4    1.3547814    2.0301399   -4.7591349    -2.728995    2.0995277    1315.7895    9.3324374 
   15750         31.5    1.3639592    2.0438928   -4.7784402   -2.7345474    1.9942643    1315.7895   0.17334068 
   15800         31.6    1.3614845    2.0401846     -4.71682   -2.6766354    2.2540888    1315.7895    5.5604229 
   15850         31.7    1.3629238    2.0423413   -4.6876207   -2.6452793    2.3409743    1315.7895    5.5166948 
   15900         31.8    1.4024158    2.1015201   -4.7286314   -2.6271113    2.1905212    1315.7895 -0.0059404884 
   15950         31.9     1.419757    2.1275058   -4.6734864   -2.5459806    2.4692159    1315.7895    6.9849276 
   16000           32    1.4527721     2.176979   -4.6719724   -2.4949934    2.5028668    1315.7895  0.021772066 
   16050         32.1    1.4062839    2.1073164   -4.7189712   -2.6116548    2.2627527    1315.7895   -1.5314051 
   16100         32.2    1.3865587    2.0777583   -4.6939381   -2.6161798    2.4426473    1315.7895  -0.69895261 
   16150         32.3    1.4082912    2.1103243   -4.7311832   -2.6208588    2.3029393    1315.7895    1.3222344 
   16200         32.4    1.3981062    2.0950621   -4.8049425   -2.7098804    1.9176101    1315.7895 0.0088688494 
   16250         32.5    1.3054674    1.9562428   -4.7104042   -2.7541613    2.2672798    1315.7895    6.7313992 
   16300         32.6    1.3803029    2.0683839   -4.7557244   -2.6873405    2.1259259    1315.7895    1.6434797 
   16350         32.7    1.4099375    2.1127913   -4.7170371   -2.6042458    2.3133112    1315.7895    2.0679065 
   16400         32.8    1.3835237    2.0732103   -4.7071837   -2.6339734    2.2669711    1315.7895    4.4637247 
   16450         32.9    1.3870689    2.0785227    -4.729559   -2.6510363    2.1826242    1315.7895    4.9400473 
   16500           33    1.3913427     2.084927   -4.7292811   -2.6443541    2.1568793    1315.7895    3.2010228 
   16550         33.1    1.3706092    2.0538579     -4.72327   -2.6694121    2.2195487    1315.7895    1.8126524 
   16600         33.2     1.359527    2.0372512   -4.6853157   -2.6480645    2.4063084    1315.7895    3.6315206 
   16650         33.3     1.381143    2.0696427   -4.6908876   -2.6212449      2.38285    1315.7895    4.0858567 
   16700         33.4    1.4015477    2.1002193   -4.7588451   -2.6586259    2.0517412    1315.7895     3.321296 
   16750         33.5    1.3901932    2.0832045   -4.7507949   -2.6675904    2.0934414    1315.7895   0.12619856 
   16800         33.6    1.3809697    2.0693831   -4.7533186   -2.6839354    2.0939682    1315.7895   0.72536054 
   16850         33.7     1.358789    2.0361452   -4.7335301   -2.6973849    2.1530874    1315.7895    5.9619081 
   16900         33.8    1.4300691    2.1429585   -4.7447329   -2.6017744    2.1694378    1315.7895   0.25664302 
   16950         33.9    1.3833182    2.0729023    -4.714514   -2.6416116      2.22652    1315.7895   0.59715342 
   17000           34    1.3523239    2.0264574   -4.7279041   -2.7014467    2.0984418    1315.7895    1.9829121 
   17050         34.1    1.4098673    2.1126861   -4.7688213   -2.6561353    2.0035606    1315.7895    7.0635879 
   17100         34.2    1.4070745    2.1085011   -4.7239745   -2.6154733    2.3079588    1315.7895   0.31747585 
   17150         34.3    1.4439509    2.1637604   -4.6971184    -2.533358    2.4376916    1315.7895    -1.782625 
   17200         34.4    1.4494594    2.1720148    -4.715504   -2.5434891    2.3957547    1315.7895    8.5421997 
   17250         34.5     1.423746    2.1334833   -4.7552231   -2.6217398    2.1844299    1315.7895   0.88587428 
   17300         34.6    1.3494119    2.0220937     -4.67898   -2.6568863    2.4157974    1315.7895    2.8090662 
   17350         34.7    1.4337313    2.1484463   -4.7796968   -2.6312504    2.0252985    1315.7895     1.359242 
   17400         34.8    1.4068444    2.1081564    -4.732538   -2.6243816     2.197505    1315.7895    5.1233486 
   17450         34.9    1.4463362    2.1673348   -4.7133337    -2.545999    2.3689513    1315.7895     9.078471 
   17500           35    1.3661999    2.0472505   -4.6423597   -2.5951093    2.6288221    1315.7895  -0.63363268 
   17550         35.1    1.4021509    2.1011231   -4.6983439   -2.5972209    2.3774498    1315.7895    2.3093228 
   17600         35.2    1.4315409     2.145164   -4.6938736   -2.5487096    2.4205298    1315.7895    9.1212101 
   17650         35.3    1.4739751    2.2087517   -4.7311345   -2.5223828    2.3034361    1315.7895    2.5034152 
   17700         35.4    1.4419231    2.1607217   -4.6609872   -2.5002655    2.5834857    1315.7895    1.4393929 
   17750         35.5    1.4147635    2.1200232   -4.6492819   -2.5292587    2.5989788    1315.7895    4.2002172 
   17800         35.6    1.4542547    2.1792006   -4.6852762   -2.5060756    2.4914252    1315.7895  -0.48356739 
   17850         35.7    1.4408161     2.159063   -4.6969129   -2.5378499    2.4591376    1315.7895    2.3576238 
   17900         35.8    1.3558449    2.0317335    -4.629636   -2.5979025    2.6268683    1315.7895 -0.039547519 
   17950         35.9    1.3948916     2.090245   -4.6905879   -2.6003429    2.3320448    1315.7895    1.8358814 
   18000           36      1.42901    2.1413715   -4.6642527   -2.5228812    2.4762072    1315.7895   0.72913162 
   18050         36.1    1.4480722    2.1699362   -4.7040669   -2.5341307    2.2895103    1315.7895   -1.4929058 
   18100         36.2    1.4094526    2.1120647   -4.6892247     -2.57716    2.4356251    1315.7895    2.0842553 
   18150         36.3    1.4107371    2.1139895   -4.6998002   -2.5858107    2.3577463    1315.7895    2.7907437 
   18200         36.4    1.4103374    2.1133906   -4.7141077   -2.6007172    2.2823145    1315.7895    1.2146507 
   18250         36.5    1.4104278    2.1135261   -4.7567992   -2.6432731    2.1888488    1315.7895    5.0021951 
   18300         36.6    1.3905695    2.0837683   -4.7497564   -2.6659881    2.2171537    1315.7895  -0.32011386 
   18350         36.7     1.369558    2.0522827   -4.7413859   -2.6891032    2.2107062    1315.7895   0.41815478 
   18400         36.8    1.3977526    2.0945323   -4.7788525   -2.6843203    2.0487887    1315.7895    1.9976368 
   18450         36.9    1.3817211    2.0705091   -4.7583439   -2.6878348    2.0736158    1315.7895  -0.91784101 
   18500           37    1.3942409      2.08927   -4.8138342   -2.7245642    1.8632169    1315.7895  -0.24312054 
   18550         37.1    1.3727148    2.0570131   -4.7763297   -2.7193165    2.0289344    1315.7895    5.3732705 
   18600         37.2    1.3183608    1.9755637   -4.6889162   -2.7133525    2.4290126    1315.7895  -0.25941365 
   18650         37.3    1.3556076     2.031378   -4.7138391   -2.6824611    2.3395934    1315.7895    2.5200785 
   18700         37.4    1.3557228    2.0315507   -4.6791993   -2.6476487      2.43142    1315.7895    4.2220342 
   18750         37.5    1.3208264    1.9792583    -4.701789   -2.7225307    2.2306358    1315.7895    2.7531779 
   18800         37.6    1.3497176    2.0225519   -4.7355485   -2.7129966    2.0916614    1315.7895   -1.2267505 
   18850         37.7    1.3915832    2.0852874   -4.7072847   -2.6219973    2.2703136    1315.7895    1.5282981 
   18900         37.8    1.3745016    2.0596907   -4.6922585   -2.6325678    2.2960835    1315.7895   0.35494937 
   18950         37.9    1.4253369    2.1358673   -4.7509973   -2.6151299    2.0818736    1315.7895    6.0339798 
   19000           38    1.4157906    2.1215623   -4.7167612   -2.5951989    2.2600147    1315.7895    6.6716599 
   19050         38.1    1.4043458    2.1044122   -4.6802423   -2.5758301    2.4903268    1315.7895    1.4064885 
   19100         38.2    1.4569392    2.1832234   -4.6870836   -2.5038602    2.4986013    1315.7895   -1.9327924 
   19150         38.3    1.4488799    2.1711466   -4.6690466      -2.4979    2.6029467    1315.7895      2.17426 
   19200         38.4    1.4782217    2.2151152   -4.7175462    -2.502431    2.4289646    1315.7895    5.6952349 
   19250         38.5    1.4403235    2.1583248   -4.7253856   -2.5670609    2.3061965    1315.7895    1.3117048 
   19300         38.6     1.410423    2.1135188   -4.6905376   -2.5770188    2.3521858    1315.7895     1.090693 
   19350         38.7    1.4069011    2.1082414   -4.7121696   -2.6039282    2.2436622    1315.7895     4.218607 
   19400         38.8    1.4536816    2.1783418    -4.704513   -2.5261712    2.3440105    1315.7895    7.8789934 
   19450         38.9    1.4241844    2.1341403   -4.7266932   -2.5925529    2.2603237    1315.7895     1.752066 
   19500           39    1.4199855    2.1278482   -4.7194663   -2.5916181    2.2540392    1315.7895    -1.669497 
   19550         39.1    1.4288058    2.1410654   -4.6524403   -2.5113749    2.5207101    1315.7895   0.77991117 
   19600         39.2    1.4160546    2.1219578   -4.6549805   -2.5330227     2.509192    1315.7895    2.3686577 
   19650         39.3    1.4464905    2.1675661   -4.7160829   -2.5485168    2.2789788    1315.7895    1.3244052 
   19700         39.4    1.4351899     2.150632     -4.71559    -2.564958    2.2785156    1315.7895    4.0448134 
   19750         39.5    1.4117377    2.1154889   -4.6634767   -2.5479878    2.4677085    1315.7895    3.7624731 
   19800         39.6    1.4235598    2.1332044   -4.7363948   -2.6031904    2.1623507    1315.7895    3.6710203 
   19850         39.7    1.3720446    2.0560088   -4.7023388     -2.64633     2.214422    1315.7895    2.2800563 
   19900         39.8    1.3711575    2.0546795   -4.6802427   -2.6255632    2.3754188    1315.7895     11.16186 
   19950         39.9     1.339499    2.0072393   -4.6899729   -2.6827337    2.3168513    1315.7895   0.10338924 
   20000           40    1.3397491     2.007614   -4.6645038   -2.6568898    2.4299575    1315.7895 -0.073536892 
   20050         40.1    1.4155839    2.1212525   -4.7181129   -2.5968604    2.2668695    1315.7895    6.0641221 
   20100         40.2    1.3892893      2.08185   -4.7160266   -2.6341766    2.2612361    1315.7895    3.3505611 
   20150         40.3    1.4038249    2.1036316   -4.7189226    -2.615291    2.2498399    1315.7895    1.7672219 
   20200         40.4    1.4362308    2.1521919   -4.7389665   -2.5867746    2.1740406    1315.7895    1.9328435 
   20250         40.5    1.3693816    2.0520183   -4.7054105   -2.6533922    2.2723047    1315.7895    7.6206818 
   20300         40.6     1.360553    2.0387886   -4.7177783   -2.6789897     2.222898    1315.7895  -0.75033053 
   20350         40.7    1.3680447     2.050015   -4.7430261   -2.6930111    2.0887776    1315.7895  -0.73548529 
   20400         40.8    1.3723334    2.0564415   -4.7631644   -2.7067229    2.0031345    1315.7895    6.2792569 
   20450         40.9    1.3571002    2.0336146    -4.791424   -2.7578094    1.9548013    1315.7895    1.5689365 
   20500           41    1.3490248    2.0215137   -4.6800424   -2.6585287    2.4295868    1315.7895   -1.8459289 
   20550         41.1    1.4348501    2.1501229   -4.7546937   -2.6045708    2.1842661    1315.7895    1.7644943 
   20600         41.2    1.3888903     2.081252   -4.6824414   -2.6011893    2.4693908    1315.7895    4.7269925 
   20650         41.3    1.4073808    2.1089601   -4.7140714   -2.6051113    2.4101225    1315.7895  -0.96701128 
   20700         41.4    1.3740385    2.0589967   -4.7163474   -2.6573508      2.39864    1315.7895     6.577051 
   20750         41.5     1.396452    2.0925833   -4.7331401   -2.6405568    2.2555744    1315.7895   0.95073237 
   20800         41.6    1.4129881    2.1173626    -4.697492   -2.5801294    2.4897932    1315.7895    4.1724121 
   20850         41.7    1.3534533    2.0281498   -4.6750338    -2.646884    2.5092628    1315.7895    2.5935395 
   20900         41.8    1.4039344    2.1037957   -4.7177304   -2.6139347    2.3747356    1315.7895 -0.076067177 
   20950         41.9    1.4122903     2.116317   -4.7426559   -2.6263388    2.2925398    1315.7895   0.34224726 
   21000           42    1.3936271    2.0883502   -4.6970739   -2.6087237    2.4289272    1315.7895   0.18223751 
   21050         42.1    1.4401579    2.1580766   -4.7567082   -2.5986316    2.1513812    1315.7895    2.8019196 
   21100         42.2     1.335765    2.0016438   -4.6606803   -2.6590365    2.4347799    1315.7895    3.1629985 
   21150         42.3    1.3911485     2.084636   -4.7275875   -2.6429514    2.2113781    1315.7895    3.3059948 
   21200         42.4    1.3847704    2.0750784   -4.7194214    -2.644343    2.2637886    1315.7895     2.904302 
   21250         42.5    1.3629673    2.0424065   -4.7062279   -2.6638214    2.2649081    1315.7895    -2.199399 
   21300         42.6    1.3565488    2.0327884   -4.7171032   -2.6843148    2.1891305    1315.7895   0.73649044 
   21350         42.7    1.4202216    2.1282021   -4.7473261   -2.6191241    2.1199639    1315.7895    1.1187254 
   21400         42.8    1.4048581    2.1051798   -4.7228865   -2.6177067    2.2086945    1315.7895    1.8397296 
   21450         42.9    1.4240016    2.1338664   -4.7390723    -2.605206    2.1616622    1315.7895    3.9402324 
   21500           43     1.363625    2.0433921   -4.6660936   -2.6227015    2.4166252    1315.7895     3.597104 
   21550         43.1    1.3619441    2.0408732   -4.6400368   -2.5991636    2.5915652    1315.7895  -0.77849735 
   21600         43.2    1.3694388    2.0521041   -4.7189552   -2.6668511    2.2428063    1315.7895    5.6071984 
   21650         43.3    1.3106733     1.964044   -4.7003838   -2.7363398     2.317782    1315.7895    2.0397431 
   21700         43.4    1.3565516    2.0327926   -4.7373869   -2.7045943    2.2139061    1315.7895 0.0064442859 
   21750         43.5    1.3642709      2.04436   -4.7166782   -2.6723182    2.2240276    1315.7895    3.6922687 
   21800         43.6    1.3584506    2.0356383   -4.7175192    -2.681881    2.2774073    1315.7895    3.5373314 
   21850         43.7    1.3748994    2.0602868   -4.7471223   -2.6868355    2.1494388    1315.7895    0.1197875 
   21900         43.8    1.3678067    2.0496583   -4.7080536   -2.6583953    2.2492405    1315.7895    5.4064861 
   21950         43.9    1.4118498    2.1156569   -4.7858123   -2.6701553    1.9422133    1315.7895    1.6433946 
   22000           44    1.3524791      2.02669   -4.7570308   -2.7303409    2.0597479    1315.7895    6.9740188 
   22050         44.1    1.3744629    2.0596327   -4.7389834   -2.6793507     2.209965    1315.7895 -0.059486004 
   22100         44.2    1.4202694    2.1282737   -4.7628133   -2.6345396    2.1139043    1315.7895    2.0201631 
   22150         44.3    1.4161389    2.1220841   -4.7338909   -2.6118068    2.2471597    1315.7895   0.16516327 
   22200         44.4    1.4204071      2.12848   -4.7182762   -2.5897962    2.2935787    1315.7895   0.72003056 
   22250         44.5    1.4085399    2.1106971   -4.7003312   -2.5896341    2.4286848    1315.7895   0.83206588 
   22300         44.6    1.4051466    2.1056121   -4.7373185   -2.6317063    2.2563441    1315.7895   -2.5630521 
   22350         44.7    1.3743595    2.0594778   -4.7599223   -2.7004445    2.1049353    1315.7895   -1.1746365 
   22400         44.8    1.4039901    2.1038792    -4.784781   -2.6809018    2.0400864    1315.7895    8.6021111 
   22450         44.9    1.3572248    2.0338014   -4.7330219   -2.6992205    2.2382281    1315.7895   -0.5850325 
   22500           45    1.3812305    2.0697739   -4.7051288    -2.635355    2.3167095    1315.7895    6.1345548 
   22550         45.1    1.4131088    2.1175436   -4.7328049   -2.6152613    2.2247686    1315.7895   0.19865178 
   22600         45.2    1.4069772    2.1083553   -4.7381516   -2.6297963    2.1911267    1315.7895   -0.4003477 
   22650         45.3     1.353178    2.0277372   -4.6706869   -2.6429498    2.4721377    1315.7895  -0.19367583 
   22700         45.4     1.388603    2.0808216   -4.6980603   -2.6172387    2.3550456    1315.7895     4.699512 
   22750         45.5    1.3720607     2.056033   -4.7021998   -2.6461668    2.3128112    1315.7895    4.1026593 
   22800         45.6    1.3791137    2.0666019    -4.722221   -2.6556191    2.2222518    1315.7895    0.1498935 
   22850         45.7    1.3816133    2.0703475   -4.7046687   -2.6343212    2.3317775    1315.7895   -1.5110911 
   22900         45.8    1.3902064    2.0832242    -4.707795   -2.6245708    2.3353258    1315.7895    10.320897 
   22950         45.9    1.3725851    2.0568188   -4.7413754   -2.6845566     2.221595    1315.7895    1.0804921 
   23000           46    1.3215376    1.9803241   -4.6927681   -2.7124441    2.3669716    1315.7895   -1.9945724 
   23050         46.1    1.4157554    2.1215095   -4.8005245    -2.679015    1.9671299    1315.7895  -0.86569249 
   23100         46.2    1.4038605    2.1036849   -4.7354081   -2.6317232    2.2477532    1315.7895    5.2202166 
   23150         46.3    1.4188357    2.1261253   -4.7423675   -2.6162422    2.1643073    1315.7895    1.3239645 
   23200         46.4    1.3921025    2.0860656    -4.748795   -2.6627294    2.1231464    1315.7895    0.4462833 
   23250         46.5    1.3409544    2.0094202   -4.7141217   -2.7047015    2.2792687    1315.7895   0.34700498 
   23300         46.6    1.3912344    2.0847648   -4.6986501   -2.6138853    2.3335039    1315.7895    8.4812151 
   23350         46.7    1.4028849     2.102223   -4.6523141   -2.5500912    2.4799686    1315.7895    5.0173728 
   23400         46.8     1.383404    2.0730308    -4.684303   -2.6112721    2.3565125    1315.7895    6.1223176 
   23450         46.9     1.382844    2.0721918   -4.7148153   -2.6426235    2.2473643    1315.7895    2.1279811 
   23500           47    1.3610529    2.0395378   -4.7020423   -2.6625046    2.3408139    1315.7895    4.0861152 
   23550         47.1    1.4394591    2.1570294   -4.6938696   -2.5368401    2.3970287    1315.7895    0.2853233 
   23600         47.2     1.493169    2.2375137   -4.6973774   -2.4598637    2.4280213    1315.7895    -1.557534 
   23650         47.3    1.4245295    2.1346575   -4.6135706   -2.4789131    2.7132795    1315.7895    3.4451242 
   23700         47.4    1.4237459    2.1334832   -4.6893299   -2.5558467     2.498324    1315.7895    2.4463091 
   23750         47.5    1.4042233    2.1042286     -4.69127   -2.5870414    2.4892175    1315.7895    1.2631049 
   23800         47.6    1.4193399    2.1268808   -4.6868759   -2.5599951    2.4364871    1315.7895    7.7843468 
   23850         47.7    1.4067165    2.1079647   -4.7441715   -2.6362067    2.2181091    1315.7895     3.136534 
   23900         47.8    1.4517238    2.1754082   -4.7659572    -2.590549    2.1974816    1315.7895    5.9953262 
   23950         47.9    1.3684383    2.0506048   -4.6891713   -2.6385665    2.4865496    1315.7895  -0.41829623 
   24000           48    1.4053416    2.1059044   -4.6987669   -2.5928625     2.445065    1315.7895  -0.61203434 
   24050         48.1     1.402215    2.1012191   -4.7244412   -2.6232221    2.3177361    1315.7895    1.9536218 
   24100         48.2    1.4199287    2.1277632   -4.7235569   -2.5957937    2.2663494    1315.7895   -1.6255474 
   24150         48.3    1.4068538    2.1081704   -4.7413107   -2.6331403      2.22069    1315.7895    -1.993678 
   24200         48.4    1.3554747    2.0311788   -4.6842624   -2.6530836      2.43405    1315.7895    1.7733989 
   24250         48.5    1.3595194    2.0372398   -4.6895332   -2.6522935    2.4431387    1315.7895     5.416433 
   24300         48.6    1.3392657    2.0068897   -4.7200956   -2.7132059    2.2375654    1315.7895   -1.0075144 
   24350         48.7    1.3522737    2.0263821    -4.764501   -2.7381189    2.0878982    1315.7895   -2.2782315 
   24400         48.8    1.3351628    2.0007414   -4.7599108   -2.7591694    2.0615522    1315.7895   0.13060609 
   24450         48.9    1.3354278    2.0011385   -4.7590632   -2.7579247    2.0169994    1315.7895    1.0710849 
   24500           49    1.3728188     2.057169   -4.7733782   -2.7162092    2.0093967    1315.7895   -0.1371069 
   24550         49.1    1.3364173    2.0026213   -4.6630019   -2.6603806    2.4320129    1315.7895    4.3536493 
   24600         49.2    1.4346177    2.1497747   -4.7247814   -2.5750067    2.2718875    1315.7895    1.3726705 
   24650         49.3    1.4283902    2.1404427   -4.7176406   -2.5771978     2.282901    1315.7895      2.94758 
   24700         49.4    1.4252504    2.1357377    -4.732171   -2.5964333    2.1667904    1315.7895    7.5709823 
   24750         49.5    1.4113256    2.1148714   -4.7150532   -2.6001818    2.2538414    1315.7895   -1.3125538 
   24800         49.6    1.3905421    2.0837274   -4.6428951   -2.5591677    2.5851461    1315.7895    1.1879867 
   24850         49.7    1.4041599    2.1041337   -4.7474212   -2.6432875    2.1373582    1315.7895  -0.10401501 
   24900         49.8    1.3579638    2.0349088   -4.7403075   -2.7053987    2.1420553    1315.7895   -1.3447993 
   24950         49.9    1.3687693    2.0511008   -4.7606859   -2.7095851    2.0868942    1315.7895    1.6600604 
   25000           50    1.3913887     2.084996   -4.7855718   -2.7005758    1.9465724    1315.7895  -0.34199661 
   25050         50.1     1.392754    2.0870419   -4.7587245   -2.6716826    2.0673287    1315.7895   0.45941376 
   25100         50.2    1.3847802    2.0750931   -4.7159692    -2.640876    2.2146811    1315.7895    1.4023798 
   25150         50.3    1.4399091    2.1577038   -4.7796431   -2.6219393    1.9414079    1315.7895    8.1923678 
   25200         50.4     1.386992    2.0784076   -4.7083022   -2.6298946    2.2169011    1315.7895   -1.5294215 
   25250         50.5     1.363107    2.0426159   -4.6855591   -2.6429432    2.4114548    1315.7895    1.6429866 
   25300         50.6    1.3973758    2.0939676   -4.7098304   -2.6158628    2.3456153    1315.7895  -0.24749555 
   25350         50.7    1.3817879    2.0706092   -4.7477095   -2.6771003    2.1951879    1315.7895   -3.4559237 
   25400         50.8    1.4117743    2.1155437    -4.717667   -2.6021232    2.3408298    1315.7895 -0.036710991 
   25450         50.9    1.3992351    2.0967538   -4.6850465   -2.5882928    2.4659582    1315.7895    1.6151716 
   25500           51    1.4457142    2.1664027    -4.745692   -2.5792892    2.1902259    1315.7895    2.3117691 
   25550         51.1    1.3553796    2.0310363   -4.6615598   -2.6305235    2.4505852    1315.7895  -0.86046117 
   25600         51.2    1.3640395    2.0440132   -4.6778823   -2.6338691    2.3676285    1315.7895    3.8114356 
   25650         51.3     1.395399    2.0910054   -4.7256056   -2.6346002    2.2457763    1315.7895    2.1444109 
   25700         51.4    1.4369206    2.1532255   -4.7175428   -2.5643172    2.3037701    1315.7895  -0.51480673 
   25750         51.5    1.4152498    2.1207519   -4.6823485   -2.5615966    2.3785853    1315.7895    3.3609445 
   25800         51.6    1.4157344     2.121478     -4.70478    -2.583302     2.268172    1315.7895   0.93576928 
   25850         51.7     1.419056    2.1264554   -4.7622686   -2.6358132      2.11218    1315.7895    1.5896868 
   25900         51.8    1.3880697    2.0800224   -4.6784257   -2.5984033    2.5242435    1315.7895    10.474908 
   25950         51.9    1.3731956    2.0577336   -4.7062825   -2.6485489    2.2866847    1315.7895   0.86099301 
   26000           52    1.3341968    1.9992938   -4.6874188    -2.688125    2.2625631    1315.7895    2.7284799 
   26050         52.1    1.3781153    2.0651058    -4.651753   -2.5866472    2.4967307    1315.7895    4.7675695 
   26100         52.2    1.4552133    2.1806372   -4.7497286   -2.5690915    2.1356962    1315.7895    3.6453674 
   26150         52.3     1.373509    2.0582032   -4.7224006   -2.6641975     2.191143    1315.7895  0.064992145 
   26200         52.4    1.3883178    2.0803942   -4.7160955   -2.6357013    2.2751558    1315.7895    3.3910619 
   26250         52.5     1.424703    2.1349174   -4.7464044    -2.611487    2.2128537    1315.7895    2.8008774 
   26300         52.6    1.3612457    2.0398267   -4.7362546   -2.6964279    2.2224689    1315.7895    1.7960413 
   26350         52.7    1.4662796      2.19722   -4.7721516   -2.5749316    2.1401261    1315.7895  -0.61553648 
   26400         52.8    1.3883234    2.0804026   -4.7085937   -2.6281912    2.3482664    1315.7895    3.6394196 
   26450         52.9    1.4154118    2.1209945   -4.7341292   -2.6131347    2.1573383    1315.7895    2.6048323 
   26500           53    1.3707301    2.0540391   -4.7540388   -2.6999997    2.0754367    1315.7895  -0.99240554 
   26550         53.1    1.3602556     2.038343   -4.7564483   -2.7181053    2.0857209    1315.7895    -1.755484 
   26600         53.2    1.3356241    2.0014327   -4.7298643   -2.7284315    2.1828214    1315.7895   -1.4683385 
   26650         53.3    1.3422432    2.0113514   -4.7435436   -2.7321923    2.0936253    1315.7895    5.0509671 
   26700         53.4    1.3205003    1.9787698   -4.7617376   -2.7829679    1.9920835    1315.7895    6.9025959 
   26750         53.5    1.3485219    2.0207601   -4.7601606   -2.7394006    2.0295892    1315.7895    6.1442665 
   26800         53.6     1.351667     2.025473   -4.7444112   -2.7189382    2.0885239    1315.7895   0.29281286 
   26850         53.7    1.3092532    1.9619159    -4.718869   -2.7569531    2.1550841    1315.7895   0.83870999 
   26900         53.8    1.3322504    1.9963772   -4.7384248   -2.7420476    2.0603853    1315.7895   0.46955555 
   26950         53.9    1.3252404    1.9858727    -4.751465   -2.7655923    2.0312247    1315.7895    1.1185541 
   27000           54     1.352771    2.0271274   -4.7943956   -2.7672683    1.8632778    1315.7895  0.044645242 
   27050         54.1    1.3420491    2.0110606   -4.7737032   -2.7626426    2.0006836    1315.7895    6.3989987 
   27100         54.2    1.3438529    2.0137636   -4.7547339   -2.7409703    2.1188563    1315.7895    6.9838667 
   27150         54.3    1.3514526    2.0251517   -4.7186273   -2.6934756    2.2953506    1315.7895   -2.4200427 
   27200         54.4    1.3713706    2.0549988   -4.7134846   -2.6584858    2.3852272    1315.7895   -2.2348933 
   27250         54.5    1.3695057    2.0522044   -4.7187085   -2.6665042     2.315406    1315.7895   0.24765135 
   27300         54.6    1.3925217    2.0866937   -4.7377865   -2.6510927    2.2207175    1315.7895    3.1270911 
   27350         54.7     1.393317    2.0878855   -4.7584767   -2.6705913    2.1444618    1315.7895    1.9503664 
   27400         54.8    1.3860056    2.0769294   -4.7220054    -2.645076    2.2454085    1315.7895   -1.7043874 
   27450         54.9    1.4226621    2.1318592   -4.7262141   -2.5943549    2.2831541    1315.7895    1.0072863 
   27500           55    1.4194031    2.1269756   -4.6742346    -2.547259    2.5678604    1315.7895    8.4762734 
   27550         55.1    1.4307024    2.1439076   -4.7099899   -2.5660824    2.3729446    1315.7895  -0.58673503 
   27600         55.2    1.4133694     2.117934   -4.6829755   -2.5650415    2.5160197    1315.7895   0.32681893 
   27650         55.3    1.4022359    2.1012506   -4.6845669   -2.5833163    2.4448034    1315.7895   -1.5662518 
   27700         55.4    1.3663326    2.0474494   -4.6821431   -2.6346937    2.4250777    1315.7895    5.2953596 
   27750         55.5    1.4111103    2.1145488   -4.7240024   -2.6094535    2.2869544    1315.7895   0.23422355 
   27800         55.6    1.3575058    2.0342225   -4.6799768   -2.6457543    2.3981665    1315.7895    9.5120931 
   27850         55.7    1.4252521    2.1357403   -4.7535058   -2.6177655    2.1594366    1315.7895    2.2279234 
   27900         55.8    1.3870395    2.0784787    -4.723788   -2.6453093     2.315727    1315.7895  0.023250396 
   27950         55.9    1.3997366    2.0975052   -4.7947715   -2.6972662    2.0075874    1315.7895  -0.33489284 
   28000           56    1.4026991    2.1019447   -4.7769623   -2.6750176    1.9629885    1315.7895    3.9041125 
   28050         56.1    1.3698663    2.0527447   -4.7061189   -2.6533742    2.2335712    1315.7895     9.352588 
   28100         56.2    1.3759225    2.0618199   -4.7361901   -2.6743702    2.1032071    1315.7895    6.6423662 
   28150         56.3    1.3514025    2.0250767   -4.6986691   -2.6735924    2.2758855    1315.7895     3.238391 
   28200         56.4     1.360263    2.0383542   -4.7087664   -2.6704122    2.2861431    1315.7895   -1.6247574 
   28250         56.5    1.4312237    2.1446888   -4.7429655   -2.5982768    2.2262292    1315.7895  -0.70950718 
   28300         56.6    1.4094113    2.1120028   -4.7044257    -2.592423    2.3400964    1315.7895   0.23237196 
   28350         56.7    1.3946486     2.089881   -4.6786168   -2.5887359    2.4687223    1315.7895   0.39495123 
   28400         56.8    1.3871805      2.07869   -4.6442749   -2.5655849    2.5938364    1315.7895   0.50486246 
   28450         56.9    1.4066048    2.1077972   -4.7081682    -2.600371    2.2712559    1315.7895  -0.55400896 
   28500           57    1.4518039    2.1755281   -4.7450057   -2.5694776    2.1767526    1315.7895    1.4198435 
   28550         57.1    1.4234989    2.1331131   -4.7000413   -2.5669282    2.3655446    1315.7895    5.5619764 
   28600         57.2    1.4334528     2.148029    -4.732311    -2.584282    2.2976461    1315.7895    12.801434 
   28650         57.3    1.4708474    2.2040649    -4.714967   -2.5109021    2.3997634    1315.7895    9.2152119 
   28700         57.4    1.4374615    2.1540361   -4.6337055   -2.4796694    2.7372388    1315.7895  -0.72539083 
   28750         57.5    1.4617729    2.1904667   -4.7142451   -2.5237784    2.3192708    1315.7895  -0.91579917 
   28800         57.6    1.4294865    2.1420855   -4.6565195    -2.514434    2.5940309    1315.7895    1.2177826 
   28850         57.7    1.4454189    2.1659602   -4.7061109   -2.5401507    2.4130006    1315.7895    11.389837 
   28900         57.8    1.3746894    2.0599721   -4.6609441   -2.6009719    2.5222451    1315.7895     3.180785 
   28950         57.9    1.4017466    2.1005173    -4.726106   -2.6255888     2.213134    1315.7895   0.34721734 
   29000           58    1.3917389    2.0855207   -4.7220838   -2.6365631    2.2364577    1315.7895    6.2821807 
   29050         58.1    1.3898932     2.082755   -4.7166605   -2.6339055    2.2761701    1315.7895   0.27900217 
   29100         58.2    1.3934689    2.0881131   -4.7160201    -2.627907    2.3189486    1315.7895   -1.3073358 
   29150         58.3    1.3653807     2.046023   -4.6569727   -2.6109497    2.5517474    1315.7895    4.3157134 
   29200         58.4    1.4492488    2.1716994   -4.7222395   -2.5505401    2.2758934    1315.7895   -1.2003734 
   29250         58.5    1.4163191    2.1223542   -4.6733466   -2.5509924    2.5034876    1315.7895  -0.31378246 
   29300         58.6    1.4030212    2.1024273   -4.6942583   -2.5918311    2.3757586    1315.7895   -1.2069621 
   29350         58.7    1.4171418     2.123587   -4.6993609   -2.5757739    2.3149558    1315.7895    10.405342 
   29400         58.8    1.4605373    2.1886152   -4.7121327   -2.5235175    2.3187438    1315.7895    3.3791972 
   29450         58.9    1.4785858    2.2156609    -4.660584   -2.4449231    2.5718331    1315.7895    11.090025 
   29500           59    1.4397007    2.1573915   -4.6148717   -2.4574801    2.7783551    1315.7895    11.391319 
   29550         59.1    1.4556392    2.1812754   -4.6318795   -2.4506042    2.7498578    1315.7895    9.2244682 
   29600         59.2    1.4460018    2.1668337   -4.7173935   -2.5505598    2.3089679    1315.7895  -0.48858806 
   29650         59.3    1.3993442    2.0969172   -4.6680519   -2.5711347    2.4290289    1315.7895    4.0881512 
   29700         59.4    1.4384606    2.1555332   -4.7484647   -2.5929316    2.1017798    1315.7895  -0.24006317 
   29750         59.5    1.3840187     2.073952   -4.7025052   -2.6285532    2.2614736    1315.7895    5.3367325 
   29800         59.6    1.4194646    2.1270677   -4.7090424   -2.5819748    2.3058434    1315.7895    5.0206494 
   29850         59.7    1.3954667    2.0911068   -4.7329488    -2.641842    2.1685923    1315.7895    5.3127495 
   29900         59.8     1.395008    2.0904195    -4.712556   -2.6221365     2.293832    1315.7895  -0.50442259 
   29950         59.9    1.3552924    2.0309056    -4.661334   -2.6304284    2.4511018    1315.7895    5.2975038 
   30000           60    1.3859964    2.0769157   -4.6820573   -2.6051417    2.3974165    1315.7895     2.335536 
   30050         60.1     1.345741    2.0165928   -4.6814044   -2.6648116    2.4126503    1315.7895    1.9592001 
   30100         60.2    1.3767791    2.0631035   -4.7110104   -2.6479069    2.3363676    1315.7895   -2.1371748 
   30150         60.3    1.4225734    2.1317262   -4.7667116   -2.6349854    2.1021137    1315.7895    4.8796525 
   30200         60.4    1.3711168    2.0546185   -4.7193579   -2.6647394    2.1672405    1315.7895    10.606921 
   30250         60.5    1.3285393    1.9908161   -4.7054648   -2.7146487    2.2252143    1315.7895   0.83674109 
   30300         60.6    1.3738289    2.0586827   -4.7656414   -2.7069587    2.0771513    1315.7895  -0.39256391 
   30350         60.7     1.399194    2.0966922   -4.7126968   -2.6160046    2.2845463    1315.7895    2.1306788 
   30400         60.8    1.4183846    2.1254493   -4.7437143    -2.618265    2.1327033    1315.7895    7.5765533 
   30450         60.9    1.4062503     2.107266   -4.7074792   -2.6002131    2.2942017    1315.7895    3.0127322 
   30500           61    1.4237131    2.1334341   -4.7282272   -2.5947931    2.3118078    1315.7895    6.4136954 
   30550         61.1    1.4110293    2.1144274   -4.6828567   -2.5684293     2.433441    1315.7895  -0.44878787 
   30600         61.2    1.3943756    2.0894718   -4.6932566   -2.6037848    2.3682358    1315.7895    3.2432168 
   30650         61.3    1.3668538    2.0482304    -4.649623   -2.6013925    2.5285651    1315.7895    4.3494294 
   30700         61.4    1.4090217    2.1114191   -4.7129933   -2.6015743    2.2891789    1315.7895    12.278726 
   30750         61.5    1.4023429    2.1014109   -4.6859484   -2.5845375    2.3686037    1315.7895    4.8580802 
   30800         61.6    1.4122972    2.1163273   -4.7506018   -2.6342745    2.1035692    1315.7895    19.937437 
   30850         61.7    1.4102895    2.1133188   -4.7472625   -2.6339437     2.110406    1315.7895    1.1047822 
   30900         61.8    1.4244511      2.13454   -4.7520127   -2.6174727    2.1404169    1315.7895    1.7466483 
   30950         61.9    1.3815176    2.0702041   -4.6697231    -2.599519    2.5090348    1315.7895    2.7644562 
   31000           62     1.399246    2.0967702   -4.7057076   -2.6089374    2.3650422    1315.7895 -0.062830178 
   31050         62.1    1.4239938    2.1338548   -4.7023392   -2.5684844    2.3304748    1315.7895    1.5663794 
   31100         62.2    1.3872248    2.0787563   -4.6696872   -2.5909309    2.4836441    1315.7895    4.7571263 
   31150         62.3    1.3882055    2.0802259   -4.6217259      -2.5415    2.7050701    1315.7895    12.754067 
   31200         62.4    1.4160199    2.1219058   -4.6806791   -2.5587733     2.549389    1315.7895    1.4616108 
   31250         62.5    1.4508126    2.1740426   -4.6928391   -2.5187965    2.5567127    1315.7895    1.0321094 
   31300         62.6    1.4291933    2.1416461   -4.6440074   -2.5023613    2.7241936    1315.7895     3.025702 
   31350         62.7    1.4541624    2.1790624   -4.7445355   -2.5654731    2.2953478    1315.7895   -0.8642397 
   31400         62.8    1.3984454    2.0955704   -4.6955373   -2.5999669    2.4600795    1315.7895    1.2015748 
   31450         62.9    1.4372617    2.1537366   -4.7690834   -2.6153467     2.182696    1315.7895    0.6767153 
   31500           63     1.376863    2.0632291   -4.6787063   -2.6154772    2.4853269    1315.7895    1.0087426 
   31550         63.1    1.4320337    2.1459024   -4.7056524   -2.5597499    2.2988226    1315.7895    2.2638483 
   31600         63.2     1.418064     2.124969   -4.7477217   -2.6227528    2.1493475    1315.7895    3.1962447 
   31650         63.3    1.4026258    2.1018347   -4.7367282   -2.6348935    2.2048671    1315.7895    -1.411404 
   31700         63.4    1.3925596    2.0867506    -4.740523   -2.6537724    2.1841808    1315.7895  -0.11881762 
   31750         63.5     1.398597    2.0957975    -4.816499   -2.7207015    1.9346355    1315.7895   0.33586011 
   31800         63.6     1.340914    2.0093597   -4.7888682   -2.7795085    2.0871818    1315.7895    0.8662268 
   31850         63.7    1.3482834    2.0204027   -4.7487996   -2.7283969    2.1999053    1315.7895     1.908789 
   31900         63.8    1.3650877    2.0455839   -4.7432451   -2.6976612    2.2487052    1315.7895    4.0841766 
   31950         63.9    1.3915628    2.0852569   -4.7376626   -2.6524057    2.2289541    1315.7895  -0.41529168 
   32000           64    1.3861253    2.0771087   -4.7435746   -2.6664659    2.1942026    1315.7895    2.6515068 
   32050         64.1    1.3428408     2.012247   -4.7440171     -2.73177    2.1688161    1315.7895   -0.7929668 
   32100         64.2    1.3598259    2.0376991   -4.7233033   -2.6856042    2.2314864    1315.7895   0.62157604 
   32150         64.3    1.4118435    2.1156475   -4.6955625    -2.579915    2.3474373    1315.7895   0.42087116 
   32200         64.4    1.4433928    2.1629241   -4.7260879   -2.5631638    2.1940781    1315.7895   -0.6730061 
   32250         64.5    1.3896432    2.0823803   -4.6774232   -2.5950429    2.4968593    1315.7895   -1.6145564 
   32300         64.6    1.4083149    2.1103598   -4.7324852   -2.6221254     2.300867    1315.7895   0.87663212 
   32350         64.7     1.448976    2.1712905   -4.7598312   -2.5885407    2.1729009    1315.7895    1.3321983 
   32400         64.8    1.4031081    2.1025574   -4.7180438   -2.6154864    2.2596587    1315.7895   0.52362846 
   32450         64.9    1.4127385    2.1169886   -4.7074312   -2.5904426    2.3346386    1315.7895 -0.024139165 
   32500           65    1.3910274    2.0844545   -4.6717469   -2.5872924    2.4663835    1315.7895    3.6548901 
   32550         65.1    1.4477027    2.1693825   -4.7403669   -2.5709844    2.3124817    1315.7895    4.1139209 
   32600         65.2    1.4078581    2.1096753   -4.6846169   -2.5749416    2.4956304    1315.7895   0.88915968 
   32650         65.3    1.4388588      2.15613   -4.7342374   -2.5781074    2.2744398    1315.7895   -1.3564883 
   32700         65.4    1.4473542    2.1688603   -4.7095266   -2.5406663    2.3681523    1315.7895    -1.747189 
   32750         65.5    1.4501324    2.1730234   -4.6965046   -2.5234812    2.3726081    1315.7895    10.412625 
   32800         65.6    1.4330251    2.1473881   -4.6745324   -2.5271443    2.4822047    1315.7895    6.9481126 
   32850         65.7     1.428837    2.1411122    -4.699068   -2.5579557    2.3227508    1315.7895    1.0092663 
   32900         65.8      1.44146    2.1600278   -4.6505126   -2.4904849     2.507925    1315.7895     3.363608 
   32950         65.9    1.4649559    2.1952364   -4.6858832   -2.4906468    2.4716563    1315.7895    3.4694207 
   33000           66    1.4026579    2.1018828   -4.6942954   -2.5924126    2.4031962    1315.7895   0.91073039 
   33050         66.1    1.4429998    2.1623352   -4.7006763   -2.5383411    2.4383085    1315.7895    3.5924549 
   33100         66.2    1.3912664    2.0848126   -4.6285987   -2.5437861    2.6049851    1315.7895    3.3054097 
   33150         66.3    1.3950307    2.0904536   -4.7082564   -2.6178028    2.2656081    1315.7895    3.9097149 
   33200         66.4     1.461341    2.1898194   -4.7676974   -2.5778779    2.1162772    1315.7895   -1.7087614 
   33250         66.5    1.3756345    2.0613883   -4.6714034   -2.6100151    2.4445172    1315.7895    6.3872493 
   33300         66.6    1.3939939    2.0888999   -4.6860665   -2.5971666    2.3905975    1315.7895    3.5839445 
   33350         66.7    1.4208804    2.1291893   -4.7377324   -2.6085431    2.2206341    1315.7895    0.5747686 
   33400         66.8    1.4347792    2.1500166   -4.7555431   -2.6055264    2.2101109    1315.7895  0.026058754 
   33450         66.9    1.4281332    2.1400576   -4.7288267   -2.5887691    2.3390832    1315.7895   0.77733765 
   33500           67    1.4196229     2.127305   -4.7081573   -2.5808523    2.3640379    1315.7895 -0.0055901074 
   33550         67.1    1.3860539    2.0770018   -4.6758389   -2.5988371    2.4574061    1315.7895    1.0725815 
   33600         67.2    1.4055888    2.1062748   -4.6942262   -2.5879514    2.4056386    1315.7895     14.49274 
   33650         67.3    1.4162108    2.1221919    -4.736869   -2.6146771    2.2607423    1315.7895  -0.56179941 
   33700         67.4    1.3941823    2.0891821   -4.7354657   -2.6462836    2.2533961    1315.7895    4.2696499 
   33750         67.5    1.3553193    2.0309459   -4.7226851   -2.6917392    2.1937042    1315.7895    3.1797554 
   33800         67.6    1.3300049    1.9930124   -4.6946563   -2.7016439    2.2603897    1315.7895   0.92312303 
   33850         67.7    1.3561135     2.032136   -4.7440497   -2.7119136    2.1877602    1315.7895    1.6937319 
   33900         67.8    1.3680519    2.0500258   -4.7617965   -2.7117707    2.0861308    1315.7895    3.3287763 
   33950         67.9    1.3516834    2.0254975   -4.7297255    -2.704228     2.230256    1315.7895    3.8860603 
   34000           68    1.3760032    2.0619409   -4.7115976   -2.6496567    2.2887286    1315.7895    2.0171945 
   34050         68.1    1.4230367    2.1324205   -4.7015042   -2.5690836    2.4176264    1315.7895   0.37532447 
   34100         68.2    1.4312578    2.1447397   -4.7050257   -2.5602859    2.3214364    1315.7895  -0.86795129 
   34150         68.3    1.3736268    2.0583798   -4.6262585   -2.5678787    2.6682737    1315.7895    1.0405448 
   34200         68.4    1.4451446    2.1655492   -4.6575263   -2.4919771    2.6292733    1315.7895   -0.4665134 
   34250         68.5    1.4111577    2.1146198   -4.7110294   -2.5964096    2.4243201    1315.7895   -3.1884997 
   34300         68.6    1.3727873    2.0571218    -4.681325   -2.6242032    2.5549239    1315.7895    2.3457591 
   34350         68.7    1.3999811    2.0978717      -4.7398   -2.6419283    2.2957513    1315.7895    0.8078542 
   34400         68.8     1.382293    2.0713661   -4.7326687   -2.6613026     2.281306    1315.7895  -0.51541512 
   34450         68.9    1.3626377    2.0419126   -4.7247878   -2.6828752    2.2435686    1315.7895   0.93728467 
   34500           69    1.3713487     2.054966   -4.7731127   -2.7181467    2.0020855    1315.7895   -0.7351207 
   34550         69.1    1.3978208    2.0946345   -4.7539386   -2.6593041    2.1208324    1315.7895   0.14442105 
   34600         69.2    1.4130203     2.117411   -4.7564664   -2.6390554    2.1967374    1315.7895  0.034332589 
   34650         69.3     1.379517    2.0672063   -4.7386675   -2.6714612    2.2123079    1315.7895    0.3019254 
   34700         69.4    1.4212129    2.1296875   -4.7904476   -2.6607601    2.0117423    1315.7895    4.6893522 
   34750         69.5     1.345379    2.0160504   -4.6712894   -2.6552391    2.4933192    1315.7895   0.81601412 
   34800         69.6    1.4263074    2.1373217   -4.7150661   -2.5777444    2.3389169    1315.7895   0.77166669 
   34850         69.7    1.4810809    2.2193997    -4.751033   -2.5316334    2.2021147    1315.7895   0.90202294 
   34900         69.8    1.4579622    2.1847563    -4.714939   -2.5301826    2.3472008    1315.7895    5.4305369 
   34950         69.9    1.4113076    2.1148444   -4.6568847   -2.5420403    2.6109271    1315.7895  -0.19166446 
   35000           70    1.4249158    2.1352363   -4.6811814   -2.5459451    2.5042599    1315.7895  0.097662668 
   35050         70.1    1.3855228     2.076206   -4.6677796   -2.5915736    2.4924992    1315.7895    1.7580365 
   35100         70.2    1.3987187      2.09598    -4.659726    -2.563746    2.5329932    1315.7895 -0.020868389 
   35150         70.3    1.4189624    2.1263151   -4.7114974   -2.5851822    2.3660962    1315.7895    1.5909868 
   35200         70.4    1.3832468    2.0727954   -4.7275412   -2.6547458    2.2353334    1315.7895    3.9164411 
   35250         70.5    1.3966782    2.0929222   -4.7226899   -2.6297677    2.3224556    1315.7895   -1.8679427 
   35300         70.6    1.3843835    2.0744987   -4.7354911   -2.6609924    2.2921029    1315.7895   -1.1310937 
   35350         70.7     1.381279    2.0698466   -4.6846185   -2.6147719     2.546153    1315.7895  -0.47480925 
   35400         70.8    1.3643264     2.044443   -4.7300582   -2.6856151    2.2881287    1315.7895   0.52525482 
   35450         70.9    1.4270926    2.1384983   -4.6980553    -2.559557    2.3743822    1315.7895     3.019131 
   35500           71    1.4541196    2.1789982   -4.7756408   -2.5966426     2.026271    1315.7895    13.820363 
   35550         71.1     1.410997     2.114379   -4.7538011   -2.6394221    2.0624652    1315.7895    6.9847131 
   35600         71.2    1.3862727    2.0773297   -4.7096606   -2.6323309    2.2012194    1315.7895    5.8910189 
   35650         71.3     1.328437    1.9906628    -4.667084   -2.6764212    2.3889637    1315.7895   0.74158607 
   35700         71.4    1.3215188    1.9802959   -4.6748949   -2.6945991    2.4072115    1315.7895   -1.3557802 
   35750         71.5    1.3656411    2.0464132   -4.7547962   -2.7083831    2.0302048    1315.7895    3.8758418 
   35800         71.6    1.3396153    2.0074136   -4.7810601   -2.7736466    1.8533123    1315.7895    3.8219335 
   35850         71.7    1.3496771    2.0224912   -4.7089115   -2.6864203    2.2534858    1315.7895    2.4419807 
   35900         71.8    1.4199384    2.1277776   -4.7274188   -2.5996411    2.1826377    1315.7895    1.7058062 
   35950         71.9    1.4072839    2.1088149   -4.7091799    -2.600365    2.2825879    1315.7895  -0.24658481 
   36000           72    1.4217062    2.1304268   -4.7559114   -2.6254845    2.0797559    1315.7895   0.68256247 
   36050         72.1    1.3662311    2.0472973   -4.6921472   -2.6448499    2.2952474    1315.7895  -0.82174611 
   36100         72.2    1.3990666    2.0965013    -4.743651   -2.6471498    2.1742039    1315.7895   0.66610768 
   36150         72.3    1.3764504     2.062611   -4.7083869   -2.6457759     2.376319    1315.7895    1.0380756 
   36200         72.4    1.3755764    2.0613012   -4.7593837   -2.6980825    2.0886777    1315.7895   -2.1444204 
   36250         72.5    1.4201827    2.1281437   -4.7802621   -2.6521183     2.040877    1315.7895    1.0493299 
   36300         72.6    1.3335757    1.9983632   -4.7361747   -2.7378115    2.1314233    1315.7895    6.2596446 
   36350         72.7    1.3819815    2.0708993   -4.7429225   -2.6720231    2.1669862    1315.7895   -1.4237335 
   36400         72.8    1.3456423     2.016445   -4.7080191   -2.6915741    2.3122465    1315.7895    2.1062777 
   36450         72.9    1.2967884    1.9432374   -4.6404322   -2.6971947     2.604413    1315.7895    1.2127088 
   36500           73    1.3816161    2.0703518   -4.7740669   -2.7037151     2.051078    1315.7895   -1.3100203 
   36550         73.1    1.3477556    2.0196117   -4.7263577    -2.706746    2.1920993    1315.7895    5.1753997 
   36600         73.2    1.3657763    2.0466158   -4.7370344   -2.6904186    2.1848262    1315.7895  -0.25228531 
   36650         73.3    1.3706767     2.053959   -4.7380458   -2.6840867    2.1715374    1315.7895    7.7579011 
   36700         73.4    1.3902491    2.0832882   -4.8034994   -2.7202112    1.8776697    1315.7895   -1.2084497 
   36750         73.5    1.3135422     1.968343   -4.7269711   -2.7586281    2.1947851    1315.7895    3.9746055 
   36800         73.6    1.3224848    1.9817434   -4.7243179   -2.7425745    2.1840302    1315.7895    2.9624838 
   36850         73.7    1.4066375    2.1078462   -4.7312872   -2.6234409    2.1401077    1315.7895    4.8168299 
   36900         73.8    1.4491451    2.1715439   -4.7270157   -2.5554717    2.2381852    1315.7895    4.9513477 
   36950         73.9    1.4179083    2.1247356   -4.7285205   -2.6037848    2.1981426    1315.7895   -1.1198735 
   37000           74    1.4265712    2.1377169   -4.7334895   -2.5957727    2.1760748    1315.7895 -0.013757945 
   37050         74.1    1.3537795    2.0286386   -4.6496636    -2.621025    2.4993514    1315.7895    2.5844366 
   37100         74.2    1.3944066    2.0895183   -4.6907269   -2.6012086    2.3646323    1315.7895    2.6316139 
   37150         74.3    1.4488083    2.1710392   -4.7100494   -2.5390102    2.2636666    1315.7895      -1.3092 
   37200         74.4    1.4491825    2.1715999   -4.7203001   -2.5487002    2.3196226    1315.7895    4.9951174 
   37250         74.5    1.4481694    2.1700818    -4.692749   -2.5226671    2.4274044    1315.7895    1.1187357 
   37300         74.6    1.4185734    2.1257322   -4.7008368   -2.5751045    2.3570443    1315.7895    0.5478143 
   37350         74.7    1.3788741    2.0662428    -4.692577   -2.6263341    2.4057042    1315.7895   0.32467282 
   37400         74.8    1.3760556    2.0620194   -4.6809665   -2.6189471    2.4455263    1315.7895    2.2333401 
   37450         74.9    1.3902661    2.0833137    -4.677631   -2.5943173     2.414283    1315.7895    2.0623772 
   37500           75    1.3643669    2.0445039   -4.6698166   -2.6253128    2.4881088    1315.7895   -1.6541924 
   37550         75.1    1.3785488    2.0657554   -4.7558185   -2.6900631    2.1133913    1315.7895     2.512773 
   37600         75.2    1.3581047    2.0351199   -4.7445673   -2.7094474     2.085082    1315.7895    2.2652492 
   37650         75.3     1.368104    2.0501038   -4.7577714   -2.7076677    2.1245166    1315.7895    2.1842943 
   37700         75.4    1.3330705    1.9976062   -4.6911259   -2.6935197    2.3503218    1315.7895    3.1014618 
   37750         75.5    1.3628046    2.0421626   -4.7653592   -2.7231965    2.0223453    1315.7895    2.1726037 
   37800         75.6    1.3681007    2.0500989   -4.7741467   -2.7240478    1.9917033    1315.7895    -2.010405 
   37850         75.7    1.4050808    2.1055136   -4.7274919   -2.6219783    2.2923541    1315.7895    3.4418129 
   37900         75.8    1.3648203    2.0451831   -4.6967028   -2.6515197    2.4046052    1315.7895   0.97790933 
   37950         75.9     1.367768    2.0496003   -4.7284278   -2.6788275    2.2240693    1315.7895  -0.22914813 
   38000           76    1.4053636    2.1059373   -4.7364614   -2.6305241    2.2344672    1315.7895    2.1474999 
   38050         76.1     1.394502    2.0896613   -4.7268345   -2.6371732    2.2363369    1315.7895    1.8401076 
   38100         76.2    1.4028941    2.1022369   -4.6885635   -2.5863266    2.4140862    1315.7895   0.19157223 
   38150         76.3    1.3726032    2.0568459   -4.6924991   -2.6356532    2.3800241    1315.7895    0.6404164 
   38200         76.4     1.389991    2.0829015    -4.734822   -2.6519205    2.1877088    1315.7895  -0.15337162 
   38250         76.5    1.3452537    2.0158626   -4.7186077   -2.7027451     2.261429    1315.7895    8.8659091 
   38300         76.6    1.3616634    2.0404527   -4.7884562   -2.7480035    1.8993398    1315.7895    3.6349203 
   38350         76.7    1.3620656    2.0410553   -4.7876151   -2.7465597    1.8810981    1315.7895    1.5583611 
   38400         76.8    1.3095938    1.9624264   -4.7284381   -2.7660118    2.0976906    1315.7895    4.0340679 
   38450         76.9    1.3618335    2.0407075   -4.7153794   -2.6746719    2.2533084    1315.7895    6.1185586 
   38500           77    1.3657136    2.0465218   -4.7063967    -2.659875    2.3377942    1315.7895    9.6393059 
   38550         77.1    1.3918385      2.08567   -4.7311923   -2.6455223    2.2378301    1315.7895    7.1203675 
   38600         77.2    1.3972047    2.0937112   -4.7231513   -2.6294401    2.1966851    1315.7895    6.3389244 
   38650         77.3    1.3916641    2.0854086    -4.735498   -2.6500894    2.2064374    1315.7895    4.1474117 
   38700         77.4    1.4135418    2.1181924   -4.6850432   -2.5668507    2.4635218    1315.7895   -1.4518648 
   38750         77.5    1.4123098    2.1163462   -4.7263735   -2.6100273    2.3158042    1315.7895    -0.713389 
   38800         77.6    1.3733169    2.0579153   -4.7532645   -2.6953491    2.2459136    1315.7895    7.2116073 
   38850         77.7    1.3904077    2.0835259   -4.7722545   -2.6887286    2.1122206    1315.7895  -0.69173972 
   38900         77.8    1.3635697    2.0433092   -4.7090976   -2.6657885     2.288742    1315.7895    -0.125936 
   38950         77.9    1.3897462    2.0825346   -4.6735921   -2.5910575    2.5404319    1315.7895   -1.0795156 
   39000           78    1.4859602    2.2267114   -4.7103333   -2.4836219    2.4093799    1315.7895    5.1803079 
   39050         78.1    1.4392992    2.1567898   -4.6820057   -2.5252159    2.5069449    1315.7895    5.0981109 
   39100         78.2    1.4148842     2.120204   -4.6570919   -2.5368879     2.519843    1315.7895    4.0780116 
   39150         78.3    1.4482398    2.1701874   -4.7063017   -2.5361143    2.3784438    1315.7895    1.0642719 
   39200         78.4    1.4724108    2.2064077   -4.7130618   -2.5066542    2.3485409    1315.7895    1.8850674 
   39250         78.5     1.450384    2.1734004   -4.6121689   -2.4387685    2.8330066    1315.7895    3.3021651 
   39300         78.6    1.4826773     2.221792   -4.6370433   -2.4152513    2.6830658    1315.7895  -0.15967593 
   39350         78.7    1.4922644    2.2361582   -4.6557255   -2.4195673     2.554878    1315.7895    1.9945873 
   39400         78.8    1.4412012    2.1596399   -4.6807391   -2.5210991    2.4353666    1315.7895    4.5680611 
   39450         78.9     1.416721    2.1229564   -4.7135766   -2.5906202    2.3504183    1315.7895    1.2552099 
   39500           79    1.4503395    2.1733338   -4.7336849   -2.5603512     2.309975    1315.7895   0.83969087 
   39550         79.1    1.3546299    2.0299128   -4.6490064   -2.6190935    2.5441969    1315.7895    1.3075086 
   39600         79.2    1.3951571    2.0906429   -4.6880511   -2.5974082    2.3818948    1315.7895   -0.3131431 
   39650         79.3     1.388035    2.0799705   -4.6151108   -2.5351403    2.7048335    1315.7895    7.5329285 
   39700         79.4    1.4730982    2.2074377   -4.6612818   -2.4538441    2.6264575    1315.7895   0.68641931 
   39750         79.5    1.4470399    2.1683892   -4.6717991   -2.5034099     2.492157    1315.7895    3.9981402 
   39800         79.6     1.456478    2.1825322   -4.6515529   -2.4690207    2.5818115    1315.7895     3.835803 
   39850         79.7    1.4309267    2.1442436   -4.6806329   -2.5363893    2.3968171    1315.7895    -2.013731 
   39900         79.8    1.4144764    2.1195929   -4.7343596   -2.6147667    2.1265174    1315.7895    8.4436885 
   39950         79.9    1.3954615    2.0910991    -4.786369   -2.6952699    1.9230461    1315.7895    4.7163726 
   40000           80    1.3900116    2.0829324   -4.7415382   -2.6586058    2.1374978    1315.7895    1.0867228 
   40050         80.1    1.4062692    2.1072944   -4.6894017   -2.5821074    2.3959258    1315.7895    6.6429903 
   40100         80.2    1.4007187     2.098977   -4.7203866   -2.6214096    2.3315001    1315.7895   -1.5415975 
   40150         80.3    1.4304767    2.1435693   -4.7649663   -2.6213971    2.1898708    1315.7895     1.882263 
   40200         80.4    1.3773153     2.063907   -4.6816541   -2.6177471    2.4680125    1315.7895    4.1771554 
   40250         80.5    1.4183056     2.125331   -4.7647993   -2.6394684    2.1332356    1315.7895  -0.14847803 
   40300         80.6    1.3642769    2.0443689   -4.7722111   -2.7278422    2.0838853    1315.7895   -1.1756585 
   40350         80.7    1.3317798    1.9956721   -4.7225107   -2.7268387    2.3005227    1315.7895    2.2929738 
   40400         80.8    1.3751924    2.0607258   -4.7104277   -2.6497019    2.4625256    1315.7895   -1.0989661 
   40450         80.9    1.4110847    2.1145104    -4.725183   -2.6106726     2.331137    1315.7895   0.52577482 
   40500           81    1.4101625    2.1131285   -4.6062471   -2.4931186    2.8119048    1315.7895  -0.16281431 
   40550         81.1    1.4360906    2.1519817   -4.7109482   -2.5589664    2.3685848    1315.7895    2.2776464 
   40600         81.2    1.4144314    2.1195254   -4.6928888   -2.5733634    2.4252746    1315.7895   -1.3649396 
   40650         81.3    1.4187858    2.1260505   -4.7197181   -2.5936675    2.3330249    1315.7895    1.6596606 
   40700         81.4    1.4172609    2.1237655   -4.7392057   -2.6154402    2.2142784    1315.7895    2.5474801 
   40750         81.5    1.4500672    2.1729258   -4.7068807    -2.533955    2.3780896    1315.7895   0.48552054 
   40800         81.6    1.3988017    2.0961044   -4.6570841   -2.5609797     2.487414    1315.7895    4.6726517 
   40850         81.7    1.4215672    2.1302185   -4.6333337   -2.5031152    2.6131944    1315.7895    1.3883841 
   40900         81.8    1.4969058    2.2431133   -4.7355082   -2.4923949     2.269237    1315.7895    1.5245742 
   40950         81.9    1.4396415    2.1573028   -4.6409656   -2.4836628    2.6841909    1315.7895   -1.0600932 
   41000           82     1.459421    2.1869424   -4.6974944    -2.510552    2.4159984    1315.7895   -2.7576987 
   41050         82.1    1.4507705    2.1739796   -4.6373286   -2.4633491    2.7518789    1315.7895   -1.3823405 
   41100         82.2    1.4584962    2.1855566   -4.6750991   -2.4895425     2.582416    1315.7895   -1.4817766 
   41150         82.3    1.4277157     2.139432   -4.7415572   -2.6021252    2.1952263    1315.7895    1.6689007 
   41200         82.4    1.4066658    2.1078887   -4.7342323   -2.6263436    2.1984324    1315.7895    4.8707961 
   41250         82.5    1.3711761    2.0547074   -4.7347681   -2.6800607    2.2218884    1315.7895    5.1528315 
   41300         82.6    1.3827085    2.0719887   -4.7173882   -2.6453995    2.2779225    1315.7895  -0.20675179 
   41350         82.7    1.3886186     2.080845   -4.7304459   -2.6496009    2.2047298    1315.7895   -1.1136811 
   41400         82.8    1.3992702    2.0968064   -4.7073025   -2.6104961    2.3188315    1315.7895    7.6539396 
   41450         82.9    1.3503604    2.0235151   -4.6824447   -2.6589296    2.3445001    1315.7895    6.7083475 
   41500           83    1.3812692     2.069832     -4.73826   -2.6684281    2.1591829    1315.7895    3.5756987 
   41550         83.1    1.3851203    2.0756028    -4.735128   -2.6595252    2.1269695    1315.7895       1.4757 
   41600         83.2    1.3931338     2.087611   -4.7435272   -2.6559162    2.1751297    1315.7895   0.39319962 
   41650         83.3    1.3815513    2.0702547   -4.7133724   -2.6431177    2.3213977    1315.7895    4.0045836 
   41700         83.4    1.4174212    2.1240057   -4.7408894   -2.6168838    2.2210577    1315.7895   -1.1488665 
   41750         83.5    1.4261822     2.137134   -4.7449116   -2.6077775    2.2074898    1315.7895   0.46652011 
   41800         83.6    1.4007916    2.0990862   -4.7421286   -2.6430424    2.1462399    1315.7895    3.6408795 
   41850         83.7    1.3822978    2.0713733   -4.6923363    -2.620963     2.417865    1315.7895    1.1120259 
   41900         83.8    1.4156917     2.121414   -4.7804413   -2.6590274    2.0651594    1315.7895    2.0660317 
   41950         83.9    1.3747911    2.0601244   -4.7386545   -2.6785301    2.1830913    1315.7895    4.2617553 
   42000           84    1.3857341    2.0765226   -4.7009372   -2.6244147    2.3193373    1315.7895    3.2064708 
   42050         84.1    1.3905307    2.0837103   -4.6219812   -2.5382709    2.6708186    1315.7895    6.0450249 
   42100         84.2    1.3859454    2.0768392   -4.6554813   -2.5786421    2.5175413    1315.7895    4.4205624 
   42150         84.3     1.377526    2.0642228   -4.6869846   -2.6227619      2.39522    1315.7895    1.9405721 
   42200         84.4    1.4680747    2.1999099   -4.7487248   -2.5488149    2.1919605    1315.7895    3.8648617 
   42250         84.5      1.38385    2.0736993   -4.6728312    -2.599132    2.5413994    1315.7895  -0.97563111 
   42300         84.6    1.3837651    2.0735721   -4.7258998   -2.6523277    2.3634868    1315.7895    2.9898525 
   42350         84.7    1.3716771    2.0554582   -4.6915519   -2.6360937    2.4549811    1315.7895    5.0733904 
   42400         84.8    1.4171777    2.1236408    -4.759605   -2.6359643    2.1989078    1315.7895    3.0117473 
   42450         84.9    1.3954422    2.0910701   -4.7381715   -2.6471014    2.2359564    1315.7895    3.9599889 
   42500           85    1.4053754     2.105955   -4.6990589   -2.5931039    2.3655306    1315.7895   -1.7177392 
   42550         85.1    1.4009355    2.0993019   -4.7184642   -2.6191624    2.2444431    1315.7895  -0.26812832 
   42600         85.2    1.4037734    2.1035545   -4.6905561   -2.5870017     2.413319    1315.7895  0.031381094 
   42650         85.3    1.3861445    2.0771375   -4.6842035    -2.607066    2.3765347    1315.7895    3.6156816 
   42700         85.4    1.3628447    2.0422228   -4.6416557   -2.5994329    2.5984183    1315.7895    1.4712099 
   42750         85.5    1.3836325    2.0733733   -4.7089486   -2.6355753    2.3172762    1315.7895    1.4818095 
   42800         85.6    1.3537494    2.0285935   -4.6904553   -2.6618618    2.3397706    1315.7895    11.384892 
   42850         85.7    1.4106725    2.1138928   -4.7527076   -2.6388149    2.0815967    1315.7895   -1.1278966 
   42900         85.8    1.4180864    2.1250025   -4.7106797   -2.5856773    2.2709379    1315.7895    1.9759426 
   42950         85.9    1.4170976    2.1235207   -4.7469711   -2.6234504    2.1399044    1315.7895    2.2673899 
   43000           86    1.3742116    2.0592561   -4.6858179   -2.6265618     2.397106    1315.7895     1.231425 
   43050         86.1    1.4075311    2.1091854   -4.7259389   -2.6167535    2.2023448    1315.7895    3.1417083 
   43100         86.2    1.4394397    2.1570004   -4.7388491   -2.5818487    2.2111913    1315.7895   0.50399434 
   43150         86.3    1.4431046    2.1624922   -4.6944544   -2.5319622    2.4463419    1315.7895   0.37197227 
   43200         86.4    1.4255154    2.1361349   -4.7445941   -2.6084592    2.2538137    1315.7895    4.4421621 
   43250         86.5    1.4398514    2.1576173   -4.7315061   -2.5738888    2.2484489    1315.7895  -0.40774911 
   43300         86.6    1.4446537    2.1648135   -4.7499686   -2.5851551    2.2451823    1315.7895   -1.8486452 
   43350         86.7    1.3563964    2.0325599   -4.7314536   -2.6988937    2.2367789    1315.7895    1.0006476 
   43400         86.8    1.3769723    2.0633931   -4.7483826   -2.6849895     2.137595    1315.7895   -1.0045359 
   43450         86.9    1.3853452    2.0759398   -4.7245517   -2.6486119    2.2974285    1315.7895   0.86829538 
   43500           87    1.3681796    2.0502172   -4.7287491   -2.6785319    2.2431227    1315.7895   -0.5723054 
   43550         87.1    1.3581528    2.0351919   -4.7498764   -2.7146845    2.1435096    1315.7895  -0.71836731 
   43600         87.2    1.3716859    2.0554713    -4.745964   -2.6904927    2.1339629    1315.7895  -0.59919444 
   43650         87.3    1.3760296    2.0619804   -4.7467294    -2.684749    2.0955643    1315.7895    3.3195427 
   43700         87.4    1.3514237    2.0251084     -4.69898   -2.6738716    2.3075491    1315.7895    5.1739835 
   43750         87.5    1.3896542    2.0823969   -4.7367836   -2.6543867    2.1858141    1315.7895   0.25843256 
   43800         87.6    1.3605904    2.0388448   -4.7636699   -2.7248251    2.0516893    1315.7895   -0.5301513 
   43850         87.7    1.3651233    2.0456373   -4.6857135   -2.6400762     2.371419    1315.7895    -1.270368 
   43900         87.8    1.3679178    2.0498248   -4.6987706   -2.6489458    2.2877561    1315.7895   -1.1553792 
   43950         87.9    1.4307972    2.1440497   -4.7288629   -2.5848132    2.2659123    1315.7895     1.884841 
   44000           88    1.4413028    2.1597922    -4.684892   -2.5250998    2.4839929    1315.7895   0.78812487 
   44050         88.1     1.384612    2.0748411   -4.6673541    -2.592513    2.4773272    1315.7895    3.5671571 
   44100         88.2    1.4037063    2.1034539   -4.7300764   -2.6266225    2.2472376    1315.7895    5.8975163 
   44150         88.3    1.3989992    2.0964003   -4.7503369   -2.6539367     2.136507    1315.7895   0.44444363 
   44200         88.4    1.3982569    2.0952879   -4.7738832   -2.6785953    2.0714449    1315.7895    3.2426776 
   44250         88.5     1.352846    2.0272397   -4.6959088   -2.6686691    2.3398555    1315.7895   -1.5006744 
   44300         88.6    1.3682612    2.0503394    -4.740698   -2.6903587    2.1631105    1315.7895    2.5047639 
   44350         88.7    1.3781845    2.0652095   -4.7491935    -2.683984    2.0989161    1315.7895  -0.78024067 
   44400         88.8    1.3638627    2.0437483   -4.7212745   -2.6775262    2.2117773    1315.7895     1.555265 
   44450         88.9    1.4051041    2.1055485   -4.7089384     -2.60339    2.3328057    1315.7895    8.4915014 
   44500           89     1.434535    2.1496506   -4.6959086   -2.5462579      2.35481    1315.7895   0.58228216 
   44550         89.1     1.421445    2.1300353    -4.673796   -2.5437607    2.5054578    1315.7895      2.29865 
   44600         89.2    1.4257704     2.136517     -4.71126    -2.574743    2.3787207    1315.7895    2.8043947 
   44650         89.3    1.4411239    2.1595242   -4.6913892    -2.531865    2.4006628    1315.7895 -0.012066045 
   44700         89.4    1.4187264    2.1259615   -4.6113806   -2.4854191    2.7396043    1315.7895    5.9114052 
   44750         89.5    1.4244204    2.1344939   -4.6868412   -2.5523473    2.5105337    1315.7895   0.86367226 
   44800         89.6    1.4528451    2.1770884   -4.7263404   -2.5492519    2.3536527    1315.7895    1.5168587 
   44850         89.7    1.4073874      2.10897   -4.6830745   -2.5741045    2.5510724    1315.7895    2.0825064 
   44900         89.8    1.3775972    2.0643294    -4.689816   -2.6254866     2.420177    1315.7895   -1.9484361 
[...]
  501300       1002.6    1.3969589    2.0933429   -4.7630078   -2.6696649    2.1879578    1315.7895    2.1945322 
  501350       1002.7    1.3516916    2.0255099   -4.7221705   -2.6966606    2.3616027    1315.7895  -0.13993582 
  501400       1002.8    1.3775255     2.064222   -4.7707892   -2.7065672    2.1067596    1315.7895   0.54360544 
  501450       1002.9    1.3468994    2.0183288   -4.7003351   -2.6820063    2.3466587    1315.7895  -0.16031678 
  501500         1003      1.40414    2.1041038   -4.7790667    -2.674963    1.9882329    1315.7895   -1.1570129 
  501550       1003.1    1.4236916    2.1334019   -4.7553282   -2.6219263    2.1708527    1315.7895     3.490698 
  501600       1003.2    1.4514148    2.1749451   -4.7155359   -2.5405907    2.4146657    1315.7895    4.2450546 
  501650       1003.3    1.4446519    2.1648109   -4.6781671   -2.5133562    2.5957262    1315.7895  -0.95525372 
  501700       1003.4    1.4179935    2.1248633   -4.6292896   -2.5044263    2.6866269    1315.7895    6.4376061 
  501750       1003.5    1.4997619    2.2473933   -4.7344745   -2.4870812    2.3572858    1315.7895   0.58156797 
  501800       1003.6    1.4290698     2.141461   -4.6604848   -2.5190237     2.578129    1315.7895    1.7868351 
  501850       1003.7    1.4553729    2.1808763   -4.6931869   -2.5123106    2.5231278    1315.7895 -0.045705169 
  501900       1003.8    1.4328103    2.1470662   -4.6413001   -2.4942339    2.7217268    1315.7895    2.8221761 
  501950       1003.9    1.4228639    2.1321616   -4.6571376   -2.5249759    2.6265836    1315.7895    11.461691 
  502000         1004     1.436496    2.1525893   -4.7063519   -2.5537626    2.3723048    1315.7895   0.78915868 
  502050       1004.1    1.4098101    2.1126005   -4.7182722   -2.6056717    2.2759309    1315.7895    2.6147509 
  502100       1004.2    1.4018378    2.1006539   -4.7818431   -2.6811892     2.085061    1315.7895 -0.0067544575 
  502150       1004.3    1.3907463    2.0840333   -4.7545679   -2.6705346    2.1480695    1315.7895  0.078430202 
  502200       1004.4    1.3565808    2.0328363    -4.690867   -2.6580307    2.3427633    1315.7895    2.0189602 
  502250       1004.5    1.3997126    2.0974693   -4.7802939   -2.6828246    1.9599606    1315.7895    4.9271775 
  502300       1004.6    1.3821137    2.0710974   -4.7200638   -2.6489664    2.1874441    1315.7895    3.6490392 
  502350       1004.7    1.3794963    2.0671752   -4.7252176   -2.6580424    2.2142554    1315.7895   0.31902693 
  502400       1004.8    1.3681713    2.0502047   -4.7459757    -2.695771    2.1592002    1315.7895   -1.5305566 
  502450       1004.9    1.3647009    2.0450042   -4.7036494   -2.6586451    2.3311836    1315.7895  -0.50275443 
  502500         1005    1.3930395    2.0874697   -4.6876416    -2.600172    2.4176675    1315.7895    3.2549133 
  502550       1005.1     1.415683    2.1214009   -4.7727566   -2.6513556    2.0375305    1315.7895   0.24077613 
  502600       1005.2    1.3855057    2.0761803   -4.7298323    -2.653652    2.1775141    1315.7895    2.3147351 
  502650       1005.3    1.3928803    2.0872311   -4.7602558   -2.6730247    2.0944118    1315.7895   0.66060736 
  502700       1005.4    1.4402884    2.1582721   -4.8297307   -2.6714586    1.8272897    1315.7895   0.97041742 
  502750       1005.5      1.39094    2.0843235   -4.7311068   -2.6467832    2.2018215    1315.7895    2.5648314 
  502800       1005.6    1.3999044    2.0977567   -4.7259638   -2.6282071    2.2464063    1315.7895   0.24112592 
  502850       1005.7    1.3800873    2.0680609   -4.7205803   -2.6525194    2.2433301    1315.7895    3.6445197 
  502900       1005.8     1.403181    2.1026667   -4.7433294   -2.6406627    2.1716218    1315.7895    1.5232758 
  502950       1005.9    1.3445882    2.0148654   -4.6833662   -2.6685007    2.3989324    1315.7895    1.5303123 
  503000         1006    1.3550677     2.030569    -4.722778    -2.692209    2.2390575    1315.7895    1.9010397 
  503050       1006.1    1.3581187    2.0351409   -4.7543404   -2.7191995    2.1081221    1315.7895     2.304367 
  503100       1006.2    1.3338446    1.9987661   -4.7490769   -2.7503108    2.0725204    1315.7895  -0.16792556 
  503150       1006.3    1.3921787    2.0861798   -4.7674214   -2.6812417    2.0705357    1315.7895   -1.1072077 
  503200       1006.4    1.3732814    2.0578622   -4.7313535   -2.6734912    2.1815716    1315.7895   0.42927473 
  503250       1006.5    1.3538237    2.0287048   -4.7259908    -2.697286    2.2563475    1315.7895     1.872207 
  503300       1006.6    1.4119116    2.1157495   -4.7266233   -2.6108737     2.331896    1315.7895  -0.22635824 
  503350       1006.7    1.3907662    2.0840632   -4.6732882    -2.589225    2.4611323    1315.7895   0.15558998 
  503400       1006.8    1.4184413    2.1255342   -4.6867178   -2.5611836     2.471567    1315.7895    3.5568301 
  503450       1006.9    1.3841485    2.0741466   -4.6229386    -2.548792    2.7297211    1315.7895    9.3861662 
  503500         1007    1.4741103    2.2089543   -4.7289074   -2.5199532    2.3733121    1315.7895    2.7772915 
  503550       1007.1    1.4110435    2.1144487   -4.6335684   -2.5191197    2.5930672    1315.7895    3.1061978 
  503600       1007.2     1.508308    2.2601996   -4.7508052   -2.4906056    2.1306765    1315.7895   -0.3303764 
  503650       1007.3    1.4023021    2.1013496    -4.669505   -2.5681554     2.446207    1315.7895  0.046475551 
  503700       1007.4    1.4245597    2.1347027   -4.7314702   -2.5967675    2.1880218    1315.7895  -0.78151549 
  503750       1007.5     1.403889    2.1037277   -4.6916635   -2.5879358    2.3681586    1315.7895    2.5094698 
  503800       1007.6    1.4047227     2.104977   -4.7385207   -2.6335437    2.1325717    1315.7895    17.951381 
  503850       1007.7    1.3824615    2.0716185   -4.7068633   -2.6352448    2.2015545    1315.7895   0.66673377 
  503900       1007.8    1.4407977    2.1590353   -4.7430482   -2.5840128     2.143157    1315.7895   0.85546058 
  503950       1007.9     1.404357     2.104429   -4.6951468   -2.5907178    2.3342591    1315.7895    15.197178 
  504000         1008    1.3910206    2.0844444   -4.7041647   -2.6197204    2.3225371    1315.7895    3.2303277 
  504050       1008.1    1.4293621    2.1418992   -4.6967036   -2.5548044    2.3548506    1315.7895    1.4375892 
  504100       1008.2    1.4392648    2.1567382   -4.6877801   -2.5310419    2.4462479    1315.7895   -1.2325711 
  504150       1008.3    1.4312166     2.144678   -4.6358064   -2.4911283    2.6906978    1315.7895   -1.4963615 
  504200       1008.4    1.4925737    2.2366217   -4.6657375   -2.4291158    2.6294863    1315.7895   -1.0467411 
  504250       1008.5    1.4298239    2.1425911   -4.6239604   -2.4813693    2.7693357    1315.7895  -0.77630373 
  504300       1008.6    1.4935101     2.238025   -4.7340398   -2.4960148    2.3269687    1315.7895   0.29151162 
  504350       1008.7    1.4605715    2.1886664   -4.6986032   -2.5099368    2.4354378    1315.7895    1.3782965 
  504400       1008.8    1.4533092    2.1777838   -4.6970879   -2.5193041    2.4839482    1315.7895    1.8262287 
  504450       1008.9    1.4378656    2.1546416   -4.7243613   -2.5697197    2.2999897    1315.7895      2.35957 
  504500         1009    1.4182289    2.1252161   -4.7032373   -2.5780212    2.3227541    1315.7895  -0.51671422 
  504550       1009.1    1.4012912    2.0998349   -4.7153968   -2.6155619    2.2346089    1315.7895    8.6133185 
  504600       1009.2    1.4126044    2.1167877   -4.7432931   -2.6265053    2.1992581    1315.7895   -1.5292124 
  504650       1009.3    1.4314823    2.1450762   -4.7535805   -2.6085043    2.1311659    1315.7895     3.380373 
  504700       1009.4    1.4202213    2.1282016   -4.7808079   -2.6526064    2.0298849    1315.7895     1.514039 
  504750       1009.5    1.3704541    2.0536255   -4.7377146    -2.684089    2.1961825    1315.7895     7.804356 
  504800       1009.6    1.3842322     2.074272   -4.7555186   -2.6812466    2.1618711    1315.7895   0.43915443 
  504850       1009.7    1.3713485    2.0549658   -4.7269021   -2.6719363    2.2394698    1315.7895  -0.61020669 
  504900       1009.8    1.4070486    2.1084624   -4.7510172   -2.6425548     2.147961    1315.7895    1.5180093 
  504950       1009.9    1.3663545    2.0474822   -4.6885039   -2.6410218    2.3624438    1315.7895   0.39203224 
  505000         1010     1.374741    2.0600495   -4.6857499   -2.6257005    2.3019711    1315.7895    7.8988082 
  505050       1010.1    1.4248856    2.1351911   -4.7370117   -2.6018206    2.1843167    1315.7895   -1.5437105 
  505100       1010.2    1.4082115    2.1102049   -4.7197712   -2.6095663    2.2208388    1315.7895    1.6301084 
  505150       1010.3    1.4418814    2.1606593   -4.7440749   -2.5834156    2.1904271    1315.7895    7.5802129 
  505200       1010.4    1.4006097    2.0988136   -4.6633944   -2.5645808    2.4867002    1315.7895    5.2355059 
  505250       1010.5    1.4178922    2.1247114   -4.7055701   -2.5808587    2.3186227    1315.7895  -0.54433788 
  505300       1010.6    1.4423762    2.1614008   -4.7110667   -2.5496659    2.2611207    1315.7895    12.080396 
  505350       1010.7    1.3994546    2.0970827   -4.7050668   -2.6079841    2.3112896    1315.7895   0.56443255 
  505400       1010.8    1.4100535    2.1129652   -4.7024548   -2.5894896     2.371133    1315.7895    6.1034629 
  505450       1010.9    1.3801355     2.068133   -4.6448749    -2.576742    2.5437419    1315.7895   0.53695799 
  505500         1011    1.4224785    2.1315841   -4.6545476   -2.5229636     2.567718    1315.7895    5.4474228 
  505550       1011.1    1.4112481    2.1147552   -4.6488755   -2.5341203    2.5866506    1315.7895  -0.15655069 
  505600       1011.2    1.4518659     2.175621   -4.6376159   -2.4619949    2.7335808    1315.7895  0.084489328 
  505650       1011.3    1.4382085    2.1551554   -4.6611837   -2.5060283    2.6081682    1315.7895    2.1285122 
  505700       1011.4    1.4333167     2.147825   -4.7266686   -2.5788436    2.3203395    1315.7895   0.50335796 
  505750       1011.5    1.4265821    2.1377332   -4.7155799   -2.5778467    2.3607068    1315.7895    1.5987869 
  505800       1011.6    1.3757907    2.0616223    -4.701562   -2.6399397    2.4093048    1315.7895   -1.2159999 
  505850       1011.7    1.4266529    2.1378394   -4.7625222   -2.6246828    2.1578095    1315.7895  -0.33880526 
  505900       1011.8    1.3838644    2.0737208   -4.7500802   -2.6763594    2.1821248    1315.7895   0.19224864 
  505950       1011.9    1.3456677     2.016483   -4.6931985   -2.6767154    2.3728617    1315.7895    1.7559593 
  506000         1012    1.4072905    2.1088248   -4.7154543   -2.6066295    2.3192714    1315.7895   0.90545118 
  506050       1012.1    1.4077468    2.1095086   -4.7134103   -2.6039016    2.3328085    1315.7895   -0.5634554 
  506100       1012.2    1.3869339    2.0783205   -4.7086928   -2.6303722    2.3688293    1315.7895   -1.1064657 
  506150       1012.3     1.392871    2.0872172    -4.700343   -2.6131259    2.3856506    1315.7895  -0.72698731 
  506200       1012.4    1.3759674    2.0618871   -4.7169925   -2.6551055    2.3030028    1315.7895 -0.093770786 
  506250       1012.5    1.3608675      2.03926   -4.7080742   -2.6688143    2.3115821    1315.7895    2.2210652 
  506300       1012.6    1.3635306    2.0432506    -4.688453   -2.6452025    2.3296661    1315.7895    11.080486 
  506350       1012.7    1.4174273    2.1240148   -4.7116388    -2.587624    2.3170371    1315.7895   0.20052007 
  506400       1012.8     1.395421    2.0910383   -4.6598899   -2.5688516     2.556072    1315.7895  -0.97229081 
  506450       1012.9    1.3930847    2.0875375   -4.7196047   -2.6320672    2.2427613    1315.7895   -1.2564135 
  506500         1013     1.439726    2.1574294   -4.7537142   -2.5962848     2.157063    1315.7895    5.5003933 
  506550       1013.1    1.4546218    2.1797507   -4.7358921   -2.5561413    2.1986599    1315.7895 -0.070310315 
  506600       1013.2    1.4501806    2.1730957   -4.7119035   -2.5388078    2.3321909    1315.7895   -1.6342531 
  506650       1013.3    1.3972937    2.0938446   -4.6397747   -2.5459301    2.6128872    1315.7895   -1.0646687 
  506700       1013.4    1.3861694    2.0771749   -4.7056119    -2.628437    2.4061218    1315.7895  -0.17590656 
  506750       1013.5    1.3982874    2.0953337   -4.7251163   -2.6297826    2.2696294    1315.7895    2.5740578 
  506800       1013.6    1.4012285    2.0997409   -4.7445873   -2.6448464     2.199011    1315.7895    3.1280281 
  506850       1013.7    1.3566086     2.032878   -4.7010694   -2.6681914    2.3626436    1315.7895    2.5066798 
  506900       1013.8    1.3954402    2.0910671   -4.7381962   -2.6471291    2.1781879    1315.7895    1.7641913 
  506950       1013.9    1.4114762    2.1150971   -4.7695827   -2.6544856    2.0190349    1315.7895    11.603524 
  507000         1014    1.3557793    2.0316353   -4.7062366   -2.6746013    2.3334138    1315.7895    1.5118141 
  507050       1014.1    1.4035374    2.1032008   -4.7462636   -2.6430628    2.1939536    1315.7895   -3.2276697 
  507100       1014.2    1.4049902    2.1053778   -4.6893266   -2.5839488    2.3448263    1315.7895    7.3433523 
  507150       1014.3    1.4154337    2.1210274    -4.696203   -2.5751757     2.389514    1315.7895 -0.0033186299 
  507200       1014.4    1.3918591    2.0857009   -4.7150149    -2.629314    2.2843167    1315.7895    0.8281471 
  507250       1014.5    1.4070032    2.1083943   -4.7547282    -2.646334    2.1166684    1315.7895   0.58814639 
  507300       1014.6    1.4014139    2.1000187   -4.7439846   -2.6439659    2.2220356    1315.7895   0.73246116 
  507350       1014.7    1.4196534    2.1273507    -4.748736   -2.6213853    2.2878344    1315.7895   -0.3451847 
  507400       1014.8    1.3551796    2.0307367   -4.7321225   -2.7013858    2.2799776    1315.7895   0.12581715 
  507450       1014.9     1.362306    2.0414155   -4.7609421   -2.7195265    2.0307217    1315.7895    2.0993981 
  507500         1015    1.3457602    2.0166216   -4.7355318   -2.7189102    2.1271065    1315.7895    5.0914008 
  507550       1015.1     1.368543    2.0507617   -4.7637417     -2.71298      2.04383    1315.7895    2.7849911 
  507600       1015.2    1.3669658    2.0483983    -4.797411   -2.7490128    1.8986436    1315.7895    6.0773579 
  507650       1015.3    1.3655795    2.0463209   -4.7414923   -2.6951714    2.1705896    1315.7895    1.3015807 
  507700       1015.4    1.3662207    2.0472817   -4.7494941   -2.7022124    2.0998439    1315.7895    5.8951389 
  507750       1015.5    1.3791278     2.066623    -4.716502    -2.649879    2.2055142    1315.7895    1.6768279 
  507800       1015.6    1.4099235    2.1127704    -4.697358   -2.5845876    2.3795846    1315.7895    6.5942184 
  507850       1015.7    1.4011023    2.0995518   -4.7161299   -2.6165781    2.2891412    1315.7895    2.2403522 
  507900       1015.8    1.4112622    2.1147765   -4.7418644   -2.6270879    2.1260716    1315.7895   0.60038394 
  507950       1015.9    1.4038311    2.1036409   -4.6913943   -2.5877534    2.4001048    1315.7895     14.04858 
  508000         1016    1.4507373    2.1739298   -4.6780039    -2.504074    2.4311355    1315.7895   -1.3748295 
  508050       1016.1    1.4041091    2.1040574   -4.6392413   -2.5351838    2.6136576    1315.7895   -2.2368183 
  508100       1016.2    1.4219152      2.13074    -4.695442    -2.564702    2.4306752    1315.7895   -1.3354104 
  508150       1016.3    1.4291897    2.1416407   -4.7300039   -2.5883632    2.2981967    1315.7895   0.80907814 
  508200       1016.4    1.4159089    2.1217395   -4.7386808   -2.6169414     2.229504    1315.7895  -0.64011121 
  508250       1016.5    1.3901234    2.0830999    -4.721199   -2.6380991    2.3377232    1315.7895     2.288713 
  508300       1016.6    1.4842272    2.2241144    -4.707541   -2.4834266     2.474927    1315.7895    4.1304031 
  508350       1016.7    1.4142556     2.119262   -4.6800459   -2.5607839    2.5054067    1315.7895     10.71353 
  508400       1016.8    1.4538922    2.1786575   -4.7567862   -2.5781287    2.1344865    1315.7895    5.9402679 
  508450       1016.9    1.3987674     2.096053   -4.6610719   -2.5650189    2.5143444    1315.7895     1.593669 
  508500         1017    1.4534932    2.1780596   -4.7281067   -2.5500471     2.280995    1315.7895   0.69412266 
  508550       1017.1    1.4055556    2.1062251   -4.7196605   -2.6134354    2.2596943    1315.7895    2.1157154 
  508600       1017.2    1.3892537    2.0817967   -4.7334257    -2.651629    2.1445984    1315.7895    1.8932868 
  508650       1017.3    1.3875416    2.0792311   -4.7309995   -2.6517684    2.1921351    1315.7895    4.7095569 
  508700       1017.4    1.3972507    2.0937801   -4.7267701     -2.63299    2.1832345    1315.7895    7.3267221 
  508750       1017.5    1.3831441    2.0726414   -4.6870403   -2.6143989    2.3855519    1315.7895    2.8177159 
  508800       1017.6    1.3945768    2.0897733   -4.7399444   -2.6501712     2.252911    1315.7895    -1.212057 
  508850       1017.7    1.4260337    2.1369115   -4.7509583   -2.6140469    2.1775298    1315.7895   -2.5565723 
  508900       1017.8    1.3547017    2.0300204   -4.7098045    -2.679784    2.3129036    1315.7895     6.183624 
  508950       1017.9    1.3838217    2.0736568   -4.6766327   -2.6029758    2.4653223    1315.7895  -0.43423239 
  509000         1018    1.4293846    2.1419329   -4.7249955   -2.5830626    2.2755887    1315.7895 -0.099094022 
  509050       1018.1    1.3656856    2.0464799   -4.7156726   -2.6691927    2.3392897    1315.7895    3.6348006 
  509100       1018.2     1.396903    2.0932591   -4.7127685   -2.6195094      2.35107    1315.7895    3.2545169 
  509150       1018.3    1.3852118    2.0757398   -4.6954455   -2.6197057    2.3539872    1315.7895    2.3995277 
  509200       1018.4    1.4331797    2.1476197    -4.739902   -2.5922822    2.2713403    1315.7895    1.7798253 
  509250       1018.5    1.4223004    2.1313172   -4.7021415   -2.5708243    2.3755608    1315.7895      6.25685 
  509300       1018.6    1.3983068    2.0953628   -4.7046181   -2.6092554    2.3466863    1315.7895    6.3003778 
  509350       1018.7     1.388046    2.0799869   -4.6854254   -2.6054384    2.4776354    1315.7895    2.6082724 
  509400       1018.8    1.3791634    2.0666763   -4.6987781   -2.6321018    2.3856334    1315.7895    6.5561737 
  509450       1018.9    1.3921795    2.0861809   -4.6696694   -2.5834885    2.4765728    1315.7895  -0.46604985 
  509500         1019    1.4253412    2.1358737   -4.7242921   -2.5884184    2.2404793    1315.7895    1.3873089 
  509550       1019.1    1.4074178    2.1090156   -4.7365659   -2.6275503    2.1501499    1315.7895   -1.1704871 
  509600       1019.2    1.3708963    2.0542881   -4.6979165   -2.6436284    2.2819898    1315.7895    5.0024365 
  509650       1019.3    1.3764697    2.0626398   -4.7542981   -2.6916583    2.0814037    1315.7895    8.6040205 
  509700       1019.4    1.3451582    2.0157195   -4.7181719   -2.7024524     2.239273    1315.7895    3.4197733 
  509750       1019.5    1.3774482    2.0641061   -4.7071815   -2.6430754    2.2619347    1315.7895    4.3149717 
  509800       1019.6    1.3853011    2.0758737   -4.7268167   -2.6509429    2.1706272    1315.7895    4.6401949 
  509850       1019.7    1.3625044    2.0417129   -4.6960665   -2.6543537     2.338513    1315.7895    3.7394146 
  509900       1019.8    1.3643603     2.044494   -4.6636313   -2.6191373    2.4340547    1315.7895  -0.39168541 
  509950       1019.9    1.3614087    2.0400709   -4.7010423   -2.6609714      2.30051    1315.7895    4.6046011 
  510000         1020    1.3965449    2.0927226    -4.745218   -2.6524954    2.2016534    1315.7895  -0.74138023
