
thermo_style    custom step time temp ke pe etotal press vol density
run             50000
WARNING: Fix gcmc is being applied to the default group all (../fix_gcmc.cpp:663)
Per MPI rank memory allocation (min/avg/max) = 3.216 | 3.216 | 3.216 Mbytes
Step Time Temp KinEng PotEng TotEng Press Volume Density 
   10000           20    1.3062602    1.9555633   -4.2891943    -2.333631    1.7045916    731.42857          0.7 
   10050         20.1    1.3180759    1.9732522   -4.3834656   -2.4102134    1.2386861    731.42857          0.7 
   10100         20.2    1.3627223    2.0400911     -4.45115   -2.4110589    1.0392009    731.42857          0.7 
   10150         20.3    1.3585312    2.0338168   -4.4160461   -2.3822293    1.3478587    731.42857          0.7 
   10200         20.4    1.3940127     2.086935   -4.3469199   -2.2599848    1.6833344    731.42857          0.7 
   10250         20.5    1.4350661    2.1400354   -4.3806319   -2.2405965    1.5560462    731.42857   0.70273438 
   10300         20.6    1.4587119    2.1626744   -4.4635426   -2.3008683    1.2772721    731.42857   0.70683594 
   10350         20.7    1.4492571    2.1486567   -4.4593226   -2.3106659    1.2959969    731.42857   0.70683594 
   10400         20.8    1.4514431    2.1560681   -4.3730644   -2.2169963    1.7072008    731.42857   0.70546875 
   10450         20.9    1.4343786      2.13901   -4.3785462   -2.2395361    1.6935312    731.42857   0.70273438 
   10500           21     1.425393     2.113276   -4.4140698   -2.3007938    1.5724971    731.42857   0.70683594 
   10550         21.1    1.4946731    2.1989768   -4.5040378    -2.305061    1.4678091    731.42857   0.71230469 
   10600         21.2     1.424633    2.0919181   -4.4357894   -2.3438713    1.7334047    731.42857   0.71367188 
   10650         21.3    1.4573846    2.1441176    -4.509252   -2.3651344    1.4677272    731.42857   0.71230469 
   10700         21.4     1.375985    2.0282549   -4.4257755   -2.3975206    1.6855506    731.42857    0.7109375 
   10750         21.5    1.4257722    2.1138383    -4.454233   -2.3403947    1.4378027    731.42857   0.70683594 
   10800         21.6    1.2990313    1.9259332    -4.376177   -2.4502438    1.6891687    731.42857   0.70683594 
   10850         21.7    1.4117111    2.0809164    -4.463376   -2.3824595    1.4863369    731.42857    0.7109375 
   10900         21.8    1.4052318    2.0753569   -4.4263934   -2.3510365    1.5641024    731.42857   0.70957031 
   10950         21.9    1.4422607     2.134156   -4.4216194   -2.2874634    1.5218088    731.42857   0.70820313 
   11000           22    1.4387884     2.129018   -4.3995726   -2.2705546    1.6068063    731.42857   0.70820313 
   11050         22.1    1.4550901    2.1448587   -4.4094396   -2.2645808    1.6760558    731.42857    0.7109375 
   11100         22.2    1.4258027    2.1098027   -4.4128956   -2.3030929    1.6460073    731.42857   0.70820313 
   11150         22.3    1.4379576    2.1360359   -4.4969656   -2.3609297    1.2054945    731.42857   0.70546875 
   11200         22.4    1.4266278    2.1110235   -4.4846777   -2.3736542    1.2505845    731.42857   0.70820313 
   11250         22.5    1.4754121    2.1790046   -4.5167984   -2.3377938    1.2538114    731.42857   0.70957031 
   11300         22.6    1.4354708    2.1078321   -4.5465304   -2.4386983    1.3116346    731.42857   0.71367188 
   11350         22.7    1.4213016    2.0672251   -4.4421793   -2.3749541    1.9793943    731.42857   0.72050781 
   11400         22.8    1.4564237    2.1142969   -4.4681713   -2.3538744    1.9605556    731.42857     0.721875 
   11450         22.9    1.4932292    2.1554805   -4.5416285    -2.386148    1.8766283    731.42857   0.72597656 
   11500           23    1.5408056     2.211662   -4.5654508   -2.3537888    1.9053384    731.42857   0.73007813 
   11550         23.1    1.4612768    2.0896803   -4.4948897   -2.4052093    2.1707842    731.42857    0.7328125 
   11600         23.2    1.4955652     2.138714   -4.4848044   -2.3460904    2.1815984    731.42857    0.7328125 
   11650         23.3    1.5171855    2.1696318   -4.4952443   -2.3256125    2.1362487    731.42857    0.7328125 
   11700         23.4    1.5121769    2.1665114   -4.5272322   -2.3607208    1.9258186    731.42857   0.73144531 
   11750         23.5    1.5314465    2.1818842   -4.5966937   -2.4148095    1.9098418    731.42857   0.73554688 
   11800         23.6    1.5549822    2.2236825   -4.5584519   -2.3347693    2.0189007    731.42857    0.7328125 
   11850         23.7    1.4969012    2.1406246   -4.5889219   -2.4482973    1.8902271    731.42857    0.7328125 
   11900         23.8      1.60596    2.2838002    -4.568695   -2.2848948     2.202927    731.42857   0.73691406 
   11950         23.9    1.5932642    2.2657458   -4.6448094   -2.3790636    1.8095531    731.42857   0.73691406 
   12000           24    1.5515196    2.2022958   -4.6176449   -2.4153491    1.9484366    731.42857   0.73828125 
   12050         24.1    1.5350521    2.1789211   -4.5684388   -2.3895177    2.1561434    731.42857   0.73828125 
   12100         24.2    1.5608303    2.2073365   -4.6038204   -2.3964838    2.0917057    731.42857   0.74101563 
   12150         24.3    1.5240872    2.1593582   -4.5889396   -2.4295814     2.044103    731.42857   0.73964844 
   12200         24.4    1.5276801    2.1644488   -4.5682548    -2.403806    2.1726579    731.42857   0.73964844 
   12250         24.5    1.4968657    2.1207903   -4.5556634   -2.4348731    2.2459024    731.42857   0.73964844 
   12300         24.6    1.5788776    2.2246501   -4.6628635   -2.4382134    1.9326731    731.42857      0.74375 
   12350         24.7    1.5574994    2.1905014   -4.6434381   -2.4529367    1.9602004    731.42857   0.74511719 
   12400         24.8    1.5301234    2.1519993   -4.6080468   -2.4560476    2.1589469    731.42857   0.74511719 
   12450         24.9     1.493999    2.1050555   -4.6236294   -2.5185739     2.027303    731.42857      0.74375 
   12500           25    1.5548612    2.1948455   -4.6974155     -2.50257    1.6888413    731.42857   0.74238281 
   12550         25.1    1.5631362    2.1944028   -4.6838615   -2.4894587    1.9070145    731.42857   0.74648438 
   12600         25.2    1.5384413     2.159735   -4.6701727   -2.5104378    1.9812515    731.42857   0.74648438 
   12650         25.3    1.4954224    2.0955051   -4.5962178   -2.5007127    2.3495135    731.42857   0.74785156 
   12700         25.4    1.5378596     2.143217   -4.6101618   -2.4669448    2.5785643    731.42857   0.75195313 
   12750         25.5    1.5521333    2.1591837   -4.6581342   -2.4989506    2.3581196    731.42857   0.75332031 
   12800         25.6     1.572239    2.1871528   -4.6594841   -2.4723313    2.4244724    731.42857   0.75332031 
   12850         25.7    1.4582614    2.0322861   -4.4627341   -2.4304479    3.0350629    731.42857   0.75195313 
   12900         25.8    1.5544172    2.1702382   -4.6718926   -2.5016544    2.2299088    731.42857   0.75058594 
   12950         25.9    1.4911616    2.0819223    -4.666174   -2.5842517     2.173332    731.42857   0.75058594 
   13000           26    1.5718666    2.2066589    -4.683683   -2.4770241    1.9286258    731.42857   0.74648438 
   13050         26.1    1.5096468    2.1154374   -4.6002785   -2.4848411    2.2890216    731.42857   0.74785156 
   13100         26.2    1.4847423    2.0767427   -4.5566425   -2.4798998    2.4943472    731.42857   0.74921875 
   13150         26.3    1.5353407     2.143604   -4.5412461   -2.3976421    2.6550808    731.42857   0.75058594 
   13200         26.4    1.5424589    2.1535423   -4.6307304   -2.4771881    2.3238342    731.42857   0.75058594 
   13250         26.5    1.5587336    2.1762647   -4.6178755   -2.4416108     2.377402    731.42857   0.75058594 
   13300         26.6      1.57087    2.1892216   -4.6898306    -2.500609    2.1094747    731.42857   0.75195313 
   13350         26.7    1.5564716    2.1652186   -4.6653309   -2.5001122    2.2190197    731.42857   0.75332031 
   13400         26.8     1.506021    2.0988456   -4.6479867   -2.5491411    2.1862035    731.42857   0.75195313 
   13450         26.9    1.5695279    2.1913354   -4.5478211   -2.3564856    2.5940354    731.42857   0.75058594 
   13500           27    1.5961173    2.2284588   -4.4738091   -2.2453502    2.9161785    731.42857   0.75058594 
   13550         27.1    1.6843269    2.3559061   -4.5982399   -2.2423337    2.4560308    731.42857   0.74921875 
   13600         27.2    1.6356226    2.2919648   -4.5394299   -2.2474651    2.6790851    731.42857   0.74785156 
   13650         27.3     1.610393    2.2443022    -4.587021   -2.3427187    2.6376245    731.42857   0.75195313 
   13700         27.4    1.6385297    2.2835145   -4.5954342   -2.3119197    2.5667581    731.42857   0.75195313 
   13750         27.5     1.614743    2.2503645     -4.58919   -2.3388255    2.5523041    731.42857   0.75195313 
   13800         27.6    1.6151336    2.2550089   -4.5511283   -2.2961194    2.7565269    731.42857   0.75058594 
   13850         27.7    1.5207837    2.1349464   -4.5153364   -2.3803901    2.6346753    731.42857   0.74648438 
   13900         27.8    1.5634729    2.1948755   -4.5869882   -2.3921127    2.3194276    731.42857   0.74648438 
   13950         27.9      1.51944    2.1252751   -4.5930693   -2.4677941    2.3508776    731.42857   0.74921875 
   14000           28     1.542417    2.1495684   -4.6880956   -2.5385272    2.0195631    731.42857   0.75195313 
   14050         28.1     1.511603    2.1028017   -4.6152684   -2.5124667    2.3640828    731.42857   0.75332031 
   14100         28.2     1.482163    2.0581122   -4.5566274   -2.4985152    2.6871522    731.42857    0.7546875 
   14150         28.3    1.5517534    2.1508481   -4.6891816   -2.5383336    2.2600741    731.42857   0.75605469 
   14200         28.4    1.5324522    2.1240951   -4.6057258   -2.4816307    2.6313173    731.42857   0.75605469 
   14250         28.5    1.5122722    2.0961241   -4.5422469   -2.4461228    2.8104576    731.42857   0.75605469 
   14300         28.6    1.5412627    2.1401772   -4.6337034   -2.4935262    2.4406455    731.42857    0.7546875 
   14350         28.7    1.5641229    2.1679932    -4.615556   -2.4475628    2.6205914    731.42857   0.75605469 
   14400         28.8    1.5258585    2.1149557   -4.6457859   -2.5308302    2.4998701    731.42857   0.75605469 
   14450         28.9    1.5526915    2.1482637   -4.7017111   -2.5534474    2.2434906    731.42857   0.75742188 
   14500           29    1.4786412     2.049509    -4.626039   -2.5765301    2.4458079    731.42857   0.75605469 
   14550         29.1    1.5219751    2.1172304   -4.6942814   -2.5770511     2.139946    731.42857   0.75332031 
   14600         29.2    1.4898072    2.0762495   -4.6113842   -2.5351347    2.4257162    731.42857   0.75195313 
   14650         29.3    1.5191262    2.1171096    -4.639014   -2.5219045    2.3141425    731.42857   0.75195313 
   14700         29.4    1.5373261    2.1424736   -4.6765223   -2.5340487    2.1214368    731.42857   0.75195313 
   14750         29.5    1.5560501    2.1646323   -4.6329748   -2.4683425    2.3902872    731.42857   0.75332031 
   14800         29.6    1.5617494    2.1607958   -4.5720871   -2.4112912    2.8648075    731.42857   0.75742188 
   14850         29.7    1.5239347    2.1046774   -4.5935138   -2.4888364    2.8285208    731.42857   0.75878906 
   14900         29.8    1.5850291    2.1969708   -4.6872526   -2.4902818    2.3518806    731.42857   0.75605469 
   14950         29.9     1.578598    2.1801719    -4.665794   -2.4856222    2.5095793    731.42857   0.75878906 
   15000           30    1.5786257    2.1723818   -4.6084931   -2.4361113    2.8693432    731.42857   0.76152344 
   15050         30.1    1.5451795    2.1263556   -4.5646661   -2.4383105    3.0753861    731.42857   0.76152344 
   15100         30.2    1.5962097    2.2124678   -4.5908086   -2.3783408    2.8524722    731.42857   0.75605469 
   15150         30.3    1.6177764    2.2423609   -4.5614577   -2.3190968    2.9759287    731.42857   0.75605469 
   15200         30.4    1.6461239    2.2857862    -4.623154   -2.3373677    2.5943463    731.42857    0.7546875 
   15250         30.5    1.6084187    2.2293905   -4.5924825    -2.363092    2.6443323    731.42857   0.75605469 
   15300         30.6    1.6063876    2.2265752   -4.6250042    -2.398429    2.5671015    731.42857   0.75605469 
   15350         30.7    1.4994158    2.0820693   -4.5711736   -2.4891043    2.6979251    731.42857    0.7546875 
   15400         30.8    1.6109221    2.2328604   -4.6742979   -2.4414376    2.3807449    731.42857   0.75605469 
   15450         30.9    1.5491889    2.1550877   -4.6009639   -2.4458762    2.6012146    731.42857   0.75332031 
   15500           31    1.6144093    2.2458162    -4.686975   -2.4411588    2.1770426    731.42857   0.75332031 
   15550         31.1    1.4636867    2.0324563   -4.5534563       -2.521    2.7279594    731.42857    0.7546875 
   15600         31.2    1.5482824    2.1421633   -4.6509602   -2.5087969    2.4765974    731.42857   0.75742188 
   15650         31.3    1.5607263    2.1554895   -4.6246708   -2.4691813    2.6564378    731.42857   0.75878906 
   15700         31.4    1.5560881    2.1607636   -4.6501401   -2.4893766    2.3536188    731.42857    0.7546875 
   15750         31.5      1.54799    2.1340546   -4.6132752   -2.4792207    2.6777392    731.42857   0.76015625 
   15800         31.6    1.5439918    2.1323778   -4.6734095   -2.5410317    2.4460982    731.42857   0.75878906 
   15850         31.7    1.5104101    2.0897641   -4.6759534   -2.5861893    2.3670116    731.42857   0.75742188 
   15900         31.8    1.4806746    2.0486229   -4.6872036   -2.6385807    2.2521478    731.42857   0.75742188 
   15950         31.9     1.534507    2.1269433   -4.7225537   -2.5956104    2.0307721    731.42857   0.75605469 
   16000           32    1.5093693    2.0921005   -4.7383451   -2.6462446     1.949848    731.42857   0.75605469 
   16050         32.1    1.4647467    2.0450425   -4.7020863   -2.6570439    1.7797844    731.42857   0.75058594 
   16100         32.2    1.4853795     2.077634   -4.6760341   -2.5984001    2.0064651    731.42857   0.74921875 
   16150         32.3    1.5343859    2.1461803   -4.7012767   -2.5550964    2.0084527    731.42857   0.74921875 
   16200         32.4    1.5342046    2.1420179   -4.6491104   -2.5070925    2.1810419    731.42857   0.75058594 
   16250         32.5    1.4789348    2.0648516   -4.6147445   -2.5498929    2.3351714    731.42857   0.75058594 
   16300         32.6    1.5848195    2.2006597   -4.6633015   -2.4626418    2.2607909    731.42857    0.7546875 
   16350         32.7    1.5169365    2.1140578    -4.692556   -2.5784982    1.9635535    731.42857   0.75195313 
   16400         32.8    1.4911201    2.0780792   -4.6715846   -2.5935055    2.0429966    731.42857   0.75195313 
   16450         32.9    1.4683986    2.0576372   -4.5537696   -2.4961325    2.5389784    731.42857   0.74785156 
   16500           33    1.5847993    2.2086339   -4.6193152   -2.4106814     2.485053    731.42857   0.75195313 
   16550         33.1    1.5830709    2.1942565   -4.6234322   -2.4291757    2.5712884    731.42857   0.75605469 
   16600         33.2    1.5490808    2.1471436   -4.6565594   -2.5094159    2.3611158    731.42857   0.75605469 
   16650         33.3    1.5405009     2.131397   -4.6616726   -2.5302757    2.3641805    731.42857   0.75742188 
   16700         33.4    1.5212494    2.1085672   -4.6571703   -2.5486031    2.3415647    731.42857   0.75605469 
   16750         33.5    1.5269028     2.112583   -4.6628589   -2.5502759    2.3636762    731.42857   0.75742188 
   16800         33.6    1.5413192    2.1363855   -4.6504631   -2.5140776    2.4837395    731.42857   0.75605469 
   16850         33.7    1.5102032    2.0970485   -4.6476308   -2.5505824    2.4872583    731.42857    0.7546875 
   16900         33.8    1.5107564    2.0978167    -4.656181   -2.5583643    2.4462578    731.42857    0.7546875 
   16950         33.9    1.5484525    2.1579796    -4.662822   -2.5048424    2.2107127    731.42857   0.75195313 
   17000           34    1.6031429    2.2261034   -4.6580186   -2.4319153    2.3331614    731.42857    0.7546875 
   17050         34.1    1.5647915    2.1650049   -4.6121823   -2.4471775    2.5799209    731.42857   0.75742188 
   17100         34.2    1.5061948    2.0839319   -4.5463734   -2.4624415    2.8740957    731.42857   0.75742188 
   17150         34.3     1.628597    2.2532844   -4.6080719   -2.3547874    2.6688198    731.42857   0.75742188 
   17200         34.4    1.5905255    2.2045891   -4.6544021    -2.449813    2.3498056    731.42857   0.75605469 
   17250         34.5    1.5764843     2.185127   -4.6576352   -2.4725082    2.3027651    731.42857   0.75605469 
   17300         34.6    1.5249663    2.1213915    -4.605538   -2.4841465    2.3881832    731.42857   0.75332031 
   17350         34.7    1.4557794     2.025145   -4.5355591   -2.5104142    2.5792615    731.42857   0.75332031 
   17400         34.8    1.4717415      2.04735   -4.6043582   -2.5570082    2.3564441    731.42857   0.75332031 
   17450         34.9    1.4632188    2.0391949   -4.5885064   -2.5493115    2.4377251    731.42857   0.75195313 
   17500           35    1.5051049    2.1013897   -4.6017285   -2.5003389    2.3959847    731.42857   0.75058594 
   17550         35.1    1.4795392     2.069465    -4.576611    -2.507146    2.3862325    731.42857   0.74921875 
   17600         35.2    1.5107949    2.1131831   -4.6239937   -2.5108106     2.199517    731.42857   0.74921875 
   17650         35.3    1.4472138    2.0242507   -4.5711417   -2.5468911    2.3490998    731.42857   0.74921875 
   17700         35.4    1.4679627    2.0570264   -4.6005371   -2.5435107    2.1865416    731.42857   0.74785156 
   17750         35.5    1.4757285    2.0679083   -4.6106632   -2.5427549    2.2785025    731.42857   0.74785156 
   17800         35.6     1.535284    2.1474364   -4.5869559   -2.4395195    2.5228306    731.42857   0.74921875 
   17850         35.7    1.4960808    2.0964277   -4.5977861   -2.5013584    2.3394944    731.42857   0.74785156 
   17900         35.8    1.4729314    2.0639889   -4.4999812   -2.4359923     2.740741    731.42857   0.74785156 
   17950         35.9    1.4912212     2.089618   -4.6079802   -2.5183621    2.3692966    731.42857   0.74785156 
   18000           36    1.5396248    2.1653622   -4.6329456   -2.4675835    2.1258576    731.42857   0.74511719 
   18050         36.1    1.5410092     2.159385   -4.5428411   -2.3834562    2.5006196    731.42857   0.74785156 
   18100         36.2    1.5053009    2.1093477   -4.5706971   -2.4613495    2.4308727    731.42857   0.74785156 
   18150         36.3    1.5271931    2.1439442   -4.5516778   -2.4077335      2.52401    731.42857   0.74648438 
   18200         36.4    1.4554104    2.0469213    -4.567326   -2.5204048     2.365456    731.42857   0.74511719 
   18250         36.5    1.4502575    2.0359384    -4.569495   -2.5335565    2.3861042    731.42857   0.74648438 
   18300         36.6    1.5169292    2.1256421   -4.5781863   -2.4525442    2.3829277    731.42857   0.74785156 
   18350         36.7      1.43903    2.0164836   -4.5237872   -2.5073036    2.5908577    731.42857   0.74785156 
   18400         36.8    1.4663259    2.0584959   -4.5909341   -2.5324381    2.3457005    731.42857   0.74648438 
   18450         36.9     1.435058    2.0182972   -4.6094703   -2.5911731    2.2091809    731.42857   0.74511719 
   18500           37    1.4800749    2.0777974   -4.6000337   -2.5222363    2.2803819    731.42857   0.74648438 
   18550         37.1     1.455337    2.0430692   -4.5950313   -2.5519621    2.2364252    731.42857   0.74648438 
   18600         37.2    1.4085617    1.9701872   -4.5649386   -2.5947514    2.4312097    731.42857   0.74921875 
   18650         37.3    1.4988357    2.0888319   -4.6679861   -2.5791542    2.1683889    731.42857   0.75195313 
   18700         37.4     1.508628     2.091073   -4.6598205   -2.5687475    2.2605489    731.42857   0.75605469 
   18750         37.5    1.5264293    2.1119279   -4.5863891   -2.4744613    2.5965661    731.42857   0.75742188 
   18800         37.6     1.495576      2.06924   -4.5877899   -2.5185499    2.5998144    731.42857   0.75742188 
   18850         37.7    1.4803821      2.05937   -4.5990935   -2.5397236    2.4158362    731.42857   0.75332031 
   18900         37.8    1.5192957    2.1096742   -4.6492701   -2.5395959    2.3149872    731.42857    0.7546875 
   18950         37.9    1.5279227     2.117817   -4.6016242   -2.4838073    2.5596904    731.42857   0.75605469 
   19000           38    1.5642855    2.1721465   -4.5870391   -2.4148926    2.5085573    731.42857    0.7546875 
   19050         38.1    1.5518602    2.1509961   -4.5584156   -2.4074195    2.7629644    731.42857   0.75605469 
   19100         38.2    1.5443729    2.1406182   -4.5853541   -2.4447359     2.755596    731.42857   0.75605469 
   19150         38.3     1.557475    2.1548819   -4.6913956   -2.5365137    2.3350075    731.42857   0.75742188 
   19200         38.4     1.506013    2.0761852   -4.6104837   -2.5342985    2.7346751    731.42857   0.76015625 
   19250         38.5    1.5323989    2.1163672   -4.6899861   -2.5736189    2.3243546    731.42857   0.75878906 
   19300         38.6     1.515259    2.0889316    -4.606769   -2.5178374    2.7423439    731.42857   0.76015625 
   19350         38.7    1.5076867    2.0859961   -4.6056505   -2.5196545    2.6964014    731.42857   0.75742188 
   19400         38.8    1.4697781    2.0335468    -4.565622   -2.5320752    2.8483251    731.42857   0.75742188 
   19450         38.9    1.5470476    2.1365982   -4.6475261   -2.5109279    2.5840812    731.42857   0.75878906 
   19500           39    1.5262805    2.1079172    -4.645654   -2.5377368    2.5359635    731.42857   0.75878906 
   19550         39.1     1.494799     2.068165   -4.6262411    -2.558076    2.5020617    731.42857   0.75742188 
   19600         39.2    1.5666042    2.1714325   -4.6807784   -2.5093459    2.3126744    731.42857   0.75605469 
   19650         39.3     1.506463    2.0918549   -4.6302209    -2.538366    2.4397812    731.42857    0.7546875 
   19700         39.4    1.5227245    2.1144354   -4.5815673   -2.4671319     2.647241    731.42857    0.7546875 
   19750         39.5    1.5467538    2.1439182   -4.5910392    -2.447121    2.6825829    731.42857   0.75605469 
   19800         39.6    1.5478727    2.1454692   -4.6093641   -2.4638949    2.6147504    731.42857   0.75605469 
   19850         39.7    1.5534564    2.1532085   -4.5712379   -2.4180294     2.737148    731.42857   0.75605469 
   19900         39.8    1.5536491    2.1731242   -4.6083197   -2.4351955    2.4284001    731.42857   0.74921875 
   19950         39.9    1.5117233    2.1144816   -4.5148421   -2.4003605    2.7298298    731.42857   0.74921875 
   20000           40    1.4959244    2.0962085   -4.4377041   -2.3414956    3.0152904    731.42857   0.74785156 
   20050         40.1    1.5040307    2.0998898   -4.4249201   -2.3250303    3.1308486    731.42857   0.75058594 
   20100         40.2    1.5258015    2.1302858   -4.5068351   -2.3765493    2.7680304    731.42857   0.75058594 
   20150         40.3    1.5308477    2.1451459    -4.576701   -2.4315552    2.4057185    731.42857   0.74785156 
   20200         40.4    1.5338252     2.145396   -4.5754002   -2.4300041    2.4463957    731.42857   0.74921875 
   20250         40.5    1.5286305    2.1381301   -4.5694475   -2.4313174    2.3864197    731.42857   0.74921875 
   20300         40.6     1.567752    2.1848763   -4.5659496   -2.3810733    2.5490108    731.42857   0.75195313 
   20350         40.7    1.5562687    2.1688727   -4.5669944   -2.3981218    2.4886155    731.42857   0.75195313 
   20400         40.8    1.5873935    2.2203232   -4.5932154   -2.3728922    2.3459541    731.42857   0.74921875 
   20450         40.9     1.533426    2.1487587   -4.5488888   -2.4001301    2.5282206    731.42857   0.74785156 
   20500           41    1.4538456    2.0484791    -4.504812   -2.4563329    2.5645303    731.42857      0.74375 
   20550         41.1    1.5297455    2.1593922   -4.5075354   -2.3481433    2.4697415    731.42857   0.74238281 
   20600         41.2    1.5760888     2.216646   -4.5506329   -2.3339869    2.4971198    731.42857   0.74511719 
   20650         41.3    1.4662034     2.058324   -4.4010251   -2.3427011    3.1427873    731.42857   0.74648438 
   20700         41.4    1.5282413    2.1533032   -4.4560527   -2.3027495    2.8344675    731.42857      0.74375 
   20750         41.5    1.5443024    2.1839628   -4.5330268    -2.349064    2.3997859    731.42857   0.74101563 
   20800         41.6    1.5164272    2.1485055   -4.5335874   -2.3850819    2.3270952    731.42857   0.73964844 
   20850         41.7    1.5315974    2.1620062   -4.4960514   -2.3340451    2.6291707    731.42857   0.74238281 
   20900         41.8    1.5518513     2.198695   -4.5346376   -2.3359426    2.3195892    731.42857   0.73964844 
   20950         41.9    1.4923643    2.1105114   -4.5461077   -2.4355963    2.1918916    731.42857   0.74101563 
   21000           42    1.5435352    2.1828778   -4.5886297   -2.4057519    2.1303937    731.42857   0.74101563 
   21050         42.1    1.5600211    2.1980812   -4.5591159   -2.3610348    2.3330335    731.42857      0.74375 
   21100         42.2    1.5145582    2.1458575   -4.5198252   -2.3739677    2.3463272    731.42857   0.73964844 
   21150         42.3     1.557346    2.1902857   -4.5544819   -2.3641962    2.3997927    731.42857   0.74511719 
   21200         42.4    1.5101225    2.1122425   -4.5111844   -2.3989419    2.7077083    731.42857   0.74921875 
   21250         42.5    1.5487844    2.1782445   -4.5852643   -2.4070199    2.2460654    731.42857   0.74511719 
   21300         42.6    1.5085152    2.1216089   -4.6176085   -2.4959995    2.0397357    731.42857   0.74511719 
   21350         42.7    1.4977997    2.1104108   -4.5648943   -2.4544835    2.2633938    731.42857      0.74375 
   21400         42.8    1.4417695    2.0465117   -4.5655778   -2.5190661    2.0310356    731.42857   0.73828125 
   21450         42.9    1.4542096    2.0565529    -4.572798   -2.5162451    2.0637531    731.42857   0.74101563 
   21500           43    1.4229819    2.0161102   -4.5585948   -2.5424846    2.0185653    731.42857   0.73964844 
   21550         43.1    1.4368071    2.0319422   -4.5735543   -2.5416122    2.1088482    731.42857   0.74101563 
   21600         43.2    1.5334911    2.1567357   -4.6271768   -2.4704411    2.2068088    731.42857   0.74511719 
   21650         43.3    1.5264843    2.1508275    -4.572204   -2.4213765    2.4213765    731.42857      0.74375 
   21700         43.4    1.4867816    2.0948861   -4.5937807   -2.4988945    2.2621451    731.42857      0.74375 
   21750         43.5    1.4847751     2.092059   -4.5850573   -2.4929983    2.2773746    731.42857      0.74375 
   21800         43.6    1.4067205    1.9857298    -4.476837   -2.4911072    2.6164769    731.42857   0.74238281 
   21850         43.7    1.5343854    2.1659418     -4.62446   -2.4585182    2.0951453    731.42857   0.74238281 
   21900         43.8    1.5496923    2.1795214   -4.5405991   -2.3610777    2.5754146    731.42857   0.74511719 
   21950         43.9    1.5303764    2.1444854   -4.5369001   -2.3924147    2.6110456    731.42857   0.74785156 
   22000           44    1.5352378    2.1591922    -4.607289   -2.4480967    2.3067118    731.42857   0.74511719 
   22050         44.1    1.4494631    2.0348232   -4.5227708   -2.4879476    2.6188898    731.42857   0.74648438 
   22100         44.2    1.5305121    2.1565029   -4.5857944   -2.4292916     2.191479    731.42857      0.74375 
   22150         44.3    1.5339529    2.1613509   -4.5971615   -2.4358106    2.1763266    731.42857      0.74375 
   22200         44.4    1.5271696     2.147845   -4.5853018   -2.4374569    2.2850172    731.42857   0.74511719 
   22250         44.5    1.5010276    2.1110783   -4.5024518   -2.3913735    2.6538288    731.42857   0.74511719 
   22300         44.6    1.5478026    2.1768637   -4.6043993   -2.4275356    2.2399863    731.42857   0.74511719 
   22350         44.7    1.5153559    2.1273266   -4.5275359   -2.4002093    2.5674598    731.42857   0.74648438 
   22400         44.8    1.4863871    2.0866588   -4.5082507   -2.4215919    2.5369546    731.42857   0.74648438 
   22450         44.9    1.5436261    2.1749805   -4.5981191   -2.4231386    2.1653922    731.42857      0.74375 
   22500           45    1.5192441    2.1366984   -4.5615878   -2.4248895    2.4207033    731.42857   0.74511719 
   22550         45.1    1.5446942    2.1605987   -4.5583813   -2.3977826    2.5264282    731.42857   0.74921875 
   22600         45.2    1.4639974    2.0439963   -4.4970957   -2.4530994     2.784299    731.42857   0.75058594 
   22650         45.3     1.513126    2.1125886   -4.6368651   -2.5242766    2.2551438    731.42857   0.75058594 
   22700         45.4    1.5278433    2.1253937   -4.5818011   -2.4564075    2.5531916    731.42857   0.75332031 
   22750         45.5    1.5179189    2.1115877   -4.5486049   -2.4370173    2.7071166    731.42857   0.75332031 
   22800         45.6    1.5206096     2.123037   -4.6295492   -2.5065122    2.2558362    731.42857   0.75058594 
   22850         45.7    1.5186919    2.1242287   -4.5946372   -2.4704085    2.4075795    731.42857   0.74921875 
   22900         45.8    1.5243136    2.1204834   -4.5365169   -2.4160335    2.7935514    731.42857   0.75332031 
   22950         45.9    1.6160533    2.2399726   -4.5954486   -2.3554761    2.6145532    731.42857   0.75605469 
   23000           46    1.6591634    2.2997265   -4.5721209   -2.2723944    2.8931265    731.42857   0.75605469 
   23050         46.1    1.6036117    2.2389223   -4.5641951   -2.3252727    2.7653235    731.42857   0.75058594 
   23100         46.2    1.5628738    2.1741249    -4.559297   -2.3851721    2.7941935    731.42857   0.75332031 
   23150         46.3    1.5738565    2.1854366   -4.6071965   -2.4217599    2.5861316    731.42857    0.7546875 
   23200         46.4    1.6123832    2.2389343   -4.5774606   -2.3385263    2.7184334    731.42857    0.7546875 
   23250         46.5    1.5920367    2.2106813   -4.5819633    -2.371282    2.6986601    731.42857    0.7546875 
   23300         46.6    1.5783374    2.1996284      -4.5876   -2.3879715    2.5374853    731.42857   0.75195313 
   23350         46.7    1.5414914    2.1443796   -4.5626863   -2.4183068    2.6604507    731.42857   0.75332031 
   23400         46.8    1.4755639    2.0601452   -4.5236323   -2.4634871    2.6729774    731.42857   0.75058594 
   23450         46.9    1.5363929    2.1489876    -4.596309   -2.4473215      2.41042    731.42857   0.74921875 
   23500           47    1.5565057    2.1771197   -4.5864154   -2.4092957    2.4823041    731.42857   0.74921875 
   23550         47.1    1.5000862    2.0943826   -4.5373136    -2.442931     2.715231    731.42857   0.75058594 
   23600         47.2    1.5670304    2.1918409   -4.5692593   -2.3774184    2.4956063    731.42857   0.74921875 
   23650         47.3    1.5267849    2.1316587    -4.571382   -2.4397232    2.4484986    731.42857   0.75058594 
   23700         47.4    1.5601911    2.1743391   -4.5900195   -2.4156803    2.4545343    731.42857   0.75195313 
   23750         47.5    1.4992961    2.0970994   -4.5515142   -2.4544148    2.4186067    731.42857   0.74921875 
   23800         47.6    1.4892565    2.0868649   -4.5575897   -2.4707248    2.3510088    731.42857   0.74785156 
   23850         47.7    1.4777958    2.0670264   -4.6115657   -2.5445393    2.2084225    731.42857   0.74921875 
   23900         47.8    1.5251564    2.1178122   -4.6547442    -2.536932     2.230458    731.42857    0.7546875 
   23950         47.9    1.5110033    2.0981595   -4.6065481   -2.5083887    2.4041415    731.42857    0.7546875 
   24000           48    1.5897914    2.2075637    -4.651879   -2.4443153    2.2378506    731.42857    0.7546875 
   24050         48.1    1.5152189    2.1116642   -4.5843339   -2.4726698    2.4796747    731.42857   0.75195313 
   24100         48.2    1.5209806    2.1196939   -4.5594097   -2.4397157    2.6088836    731.42857   0.75195313 
   24150         48.3    1.5223599    2.1254806   -4.5866751   -2.4611945    2.3895464    731.42857   0.75058594 
   24200         48.4    1.4920505    2.0756019   -4.5161556   -2.4405537    2.7693842    731.42857   0.75332031 
   24250         48.5    1.5428926    2.1424406   -4.4827435   -2.3403029    2.9580593    731.42857    0.7546875 
   24300         48.6    1.5622764    2.1693566   -4.5169393   -2.3475827    2.8241308    731.42857    0.7546875 
   24350         48.7    1.5820678    2.2088433    -4.582545   -2.3737017    2.4233702    731.42857   0.75058594 
   24400         48.8    1.5093228    2.1034472   -4.5242014   -2.4207542    2.6743489    731.42857   0.75195313 
   24450         48.9    1.5318718    2.1426638   -4.6031278    -2.460464    2.3369279    731.42857   0.74921875 
   24500           49    1.5459192    2.1623122   -4.5667095   -2.4043973    2.4115781    731.42857   0.74921875 
   24550         49.1    1.5911057    2.2214618   -4.5605146   -2.3390527    2.5116351    731.42857   0.75058594 
   24600         49.2    1.5265459    2.1313251    -4.556124   -2.4247989    2.5197485    731.42857   0.75058594 
   24650         49.3    1.5121845    2.1151267   -4.5334239   -2.4182972    2.5934992    731.42857   0.74921875 
   24700         49.4    1.5710251    2.1894377   -4.6304605   -2.4410229    2.2891259    731.42857   0.75195313 
   24750         49.5     1.528494    2.1340449   -4.5693809    -2.435336     2.503568    731.42857   0.75058594 
   24800         49.6    1.5195653    2.1254504   -4.5358396   -2.4103892    2.5985498    731.42857   0.74921875 
   24850         49.7     1.524599    2.1324911   -4.5561021    -2.423611    2.5065844    731.42857   0.74921875 
   24900         49.8    1.5761783    2.2006205   -4.5498303   -2.3492098    2.6956633    731.42857   0.75058594 
   24950         49.9    1.5817961     2.212494   -4.5453793   -2.3328852    2.7518416    731.42857   0.74921875 
   25000           50    1.5797206    2.2015561   -4.4765644   -2.2750083    3.1165558    731.42857   0.75195313 
   25050         50.1    1.5547419    2.1786282   -4.4707854   -2.2921572    2.9879513    731.42857   0.74785156 
   25100         50.2    1.5461887    2.1745938   -4.5407463   -2.3661525    2.5706422    731.42857   0.74511719 
   25150         50.3    1.5676214    2.2006993   -4.5751705   -2.3744712     2.365711    731.42857   0.74648438 
   25200         50.4    1.5797566    2.2136808   -4.5726101   -2.3589293    2.4775527    731.42857   0.74785156 
   25250         50.5    1.5594828    2.1852716   -4.5894815   -2.4042099    2.4259403    731.42857   0.74785156 
   25300         50.6    1.5148229    2.1265783   -4.5206898   -2.3941115    2.5952645    731.42857   0.74648438 
   25350         50.7    1.5507203    2.1690275   -4.5486015    -2.379574    2.5734889    731.42857   0.74921875 
   25400         50.8    1.5130233       2.1163   -4.4891752   -2.3728752    2.7853518    731.42857   0.74921875 
   25450         50.9    1.5697329     2.195621   -4.5626276   -2.3670066    2.5445501    731.42857   0.74921875 
   25500           51    1.5741726    2.1978203   -4.5482843    -2.350464    2.6801805    731.42857   0.75058594 
   25550         51.1    1.5237342    2.1196774   -4.5704333   -2.4507559    2.6430256    731.42857   0.75332031 
   25600         51.2      1.48656    2.0679641   -4.5661627   -2.4981986    2.6406604    731.42857   0.75332031 
   25650         51.3    1.5697889    2.1758466     -4.64841   -2.4725634    2.4782255    731.42857   0.75605469 
   25700         51.4     1.509455    2.0922193   -4.5698322   -2.4776129    2.7356394    731.42857   0.75605469 
   25750         51.5    1.5222832    2.1061914   -4.6069564    -2.500765     2.631901    731.42857   0.75742188 
   25800         51.6    1.5176302    2.0997536   -4.6037763   -2.5040227    2.6302105    731.42857   0.75742188 
   25850         51.7     1.494635    2.0716776   -4.6091736    -2.537496    2.6036781    731.42857   0.75605469 
   25900         51.8    1.5435684     2.139503   -4.6626166   -2.5231136    2.3571562    731.42857   0.75605469 
   25950         51.9    1.4984199    2.0731748   -4.6235908    -2.550416    2.5417183    731.42857   0.75742188 
   26000           52    1.5076428    2.0897075   -4.5963769   -2.5066694    2.6401141    731.42857   0.75605469 
   26050         52.1    1.5592472    2.1534468   -4.6502247   -2.4967779    2.5789415    731.42857   0.75878906 
   26100         52.2    1.4994167    2.0708161   -4.6644981    -2.593682     2.423735    731.42857   0.75878906 
   26150         52.3    1.5439105    2.1361145   -4.6086172   -2.4725027    2.7557117    731.42857   0.75742188 
   26200         52.4    1.4689944    2.0288003   -4.5385587   -2.5097584    2.9995247    731.42857   0.75878906 
   26250         52.5    1.4671969    2.0263179   -4.6128603   -2.5865424    2.7394634    731.42857   0.75878906 
   26300         52.6    1.4643839    2.0224329   -4.5851758   -2.5627429    2.8273392    731.42857   0.75878906 
   26350         52.7    1.5073432    2.0855209   -4.6721112   -2.5865903    2.3889196    731.42857   0.75742188 
   26400         52.8    1.5112319    2.0909012   -4.6475489   -2.5566476    2.5145068    731.42857   0.75742188 
   26450         52.9     1.493731    2.0666873   -4.6605279   -2.5938406     2.448673    731.42857   0.75742188 
   26500           53    1.5026257     2.075248   -4.6264822   -2.5512342       2.5864    731.42857   0.75878906 
   26550         53.1    1.4867696    2.0607755   -4.5511846   -2.4904091    2.7735513    731.42857   0.75605469 
   26600         53.2    1.4460104    2.0079112   -4.5418962    -2.533985    2.7217926    731.42857    0.7546875 
   26650         53.3    1.4733496    2.0570537   -4.5918696   -2.5348159    2.4597069    731.42857   0.75058594 
   26700         53.4    1.4933566     2.084987   -4.6105242   -2.5255372     2.360092    731.42857   0.75058594 
   26750         53.5    1.4743662    2.0622294   -4.6103197   -2.5480902    2.2957432    731.42857   0.74921875 
   26800         53.6    1.5032975    2.1065403   -4.5834846   -2.4769443    2.4042934    731.42857   0.74785156 
   26850         53.7    1.5092757    2.1149174   -4.5699278   -2.4550104    2.4938878    731.42857   0.74785156 
   26900         53.8    1.4927058    2.0916984   -4.6027165   -2.5110181    2.3069382    731.42857   0.74785156 
   26950         53.9    1.4984067    2.0996869   -4.5815541   -2.4818672    2.3792632    731.42857   0.74785156 
   27000           54    1.5248779    2.1367805   -4.5708301   -2.4340496    2.4040165    731.42857   0.74785156 
   27050         54.1    1.4954117    2.0878563   -4.5096071   -2.4217509    2.7146434    731.42857   0.75058594 
   27100         54.2    1.4994882    2.0935477    -4.525052   -2.4315043    2.6644704    731.42857   0.75058594 
   27150         54.3    1.5200249    2.1260933   -4.6116335   -2.4855403    2.3738487    731.42857   0.74921875 
   27200         54.4    1.4606475    2.0467757   -4.6084887   -2.5617129    2.2199272    731.42857   0.74785156 
   27250         54.5    1.4137956    1.9920484   -4.5346787   -2.5426303     2.317271    731.42857      0.74375 
   27300         54.6    1.4492097    2.0457076   -4.5876248   -2.5419172    2.0926594    731.42857   0.74238281 
   27350         54.7    1.4895585    2.1065435    -4.561796   -2.4552524    2.2101691    731.42857   0.74101563 
   27400         54.8    1.4734011    2.0875452   -4.5325768   -2.4450316    2.2763128    731.42857   0.73964844 
   27450         54.9    1.4817069    2.1032006   -4.5341196    -2.430919    2.2442311    731.42857   0.73828125 
   27500           55    1.4657589    2.0844234   -4.5321774    -2.447754    2.1488582    731.42857   0.73691406 
   27550         55.1    1.5210136    2.1510275   -4.5542527   -2.4032252    2.2449757    731.42857   0.74101563 
   27600         55.2     1.531932    2.1545429   -4.5925411   -2.4379982    2.2618405    731.42857   0.74511719 
   27650         55.3    1.4805873     2.074717   -4.5907832   -2.5160662    2.3223098    731.42857   0.74785156 
   27700         55.4    1.4537621    2.0371273   -4.5981088   -2.5609815    2.2844203    731.42857   0.74785156 
   27750         55.5    1.4379468    2.0223601   -4.4979113   -2.4755513    2.5677389    731.42857   0.74511719 
   27800         55.6    1.4809823    2.0828861   -4.5591707   -2.4762846      2.36024    731.42857   0.74511719 
   27850         55.7    1.4704671    2.0680973   -4.5956994   -2.5276021    2.2174743    731.42857   0.74511719 
   27900         55.8    1.4819239    2.0765898   -4.5515603   -2.4749705    2.4837876    731.42857   0.74785156 
   27950         55.9     1.495947    2.0886036   -4.5322523   -2.4436487    2.5355301    731.42857   0.75058594 
   28000           56    1.5600191    2.1740994   -4.6107145   -2.4366151    2.3141442    731.42857   0.75195313 
   28050         56.1    1.4808247    2.0637312    -4.565506   -2.5017748    2.5100904    731.42857   0.75195313 
   28100         56.2    1.5273651    2.1247284   -4.5817775   -2.4570491    2.5436605    731.42857   0.75332031 
   28150         56.3    1.5284685    2.1301293   -4.5643035   -2.4341742     2.555251    731.42857   0.75195313 
   28200         56.4    1.4794508    2.0580744   -4.5424672   -2.4843928    2.6604702    731.42857   0.75332031 
   28250         56.5    1.4791751    2.0614322   -4.5730423     -2.51161    2.5654868    731.42857   0.75195313 
   28300         56.6    1.5225627    2.1257638   -4.6136767   -2.4879129     2.347508    731.42857   0.75058594 
   28350         56.7    1.5420794    2.1413114   -4.5918699   -2.4505585    2.6381377    731.42857    0.7546875 
   28400         56.8    1.5158629    2.1049075   -4.5804819   -2.4755744    2.6504081    731.42857    0.7546875 
   28450         56.9    1.5802957    2.1904098   -4.6152181   -2.4248083    2.5690508    731.42857   0.75605469 
   28500           57    1.5595674    2.1616788   -4.5926016   -2.4309228    2.6457859    731.42857   0.75605469 
   28550         57.1    1.5210808    2.1159863    -4.601187   -2.4852007    2.4847107    731.42857   0.75332031 
   28600         57.2    1.4983168    2.0919123   -4.5533285   -2.4614162    2.5656128    731.42857   0.75058594 
   28650         57.3    1.5019744    2.0932061   -4.5652675   -2.4720615    2.5867637    731.42857   0.75195313 
   28700         57.4    1.4540504    2.0264176   -4.5194868   -2.4930692    2.7809869    731.42857   0.75195313 
   28750         57.5    1.5758627    2.1882224   -4.5679673   -2.3797449    2.7000594    731.42857    0.7546875 
   28800         57.6    1.4997876    2.0939657   -4.5536194   -2.4596537    2.5656073    731.42857   0.75058594 
   28850         57.7    1.5273707     2.136368    -4.565735    -2.429367    2.5587096    731.42857   0.74921875 
   28900         57.8    1.4988361    2.0926372   -4.5340982    -2.441461    2.6749989    731.42857   0.75058594 
   28950         57.9    1.5519834    2.1629005   -4.5632665   -2.4003661    2.5669323    731.42857   0.75195313 
   29000           58    1.5671589    2.1840496   -4.6064031   -2.4223535    2.4436741    731.42857   0.75195313 
   29050         58.1    1.5104539    2.1012031   -4.5190752    -2.417872    2.8978668    731.42857   0.75332031 
   29100         58.2    1.5153404    2.1118334   -4.5480433   -2.4362099    2.7504107    731.42857   0.75195313 
   29150         58.3    1.4798168    2.0585837   -4.5044105   -2.4458268    2.8945578    731.42857   0.75332031 
   29200         58.4    1.5127153     2.104349   -4.6002924   -2.4959434    2.5257158    731.42857   0.75332031 
   29250         58.5    1.5261598    2.1269118   -4.5790871   -2.4521753    2.6469548    731.42857   0.75195313 
   29300         58.6    1.5347924    2.1389424   -4.5996324   -2.4606899    2.6050042    731.42857   0.75195313 
   29350         58.7    1.5256052    2.1184355   -4.5808657   -2.4624302    2.7076038    731.42857    0.7546875 
   29400         58.8    1.4729121     2.041568    -4.538698     -2.49713    2.9300073    731.42857   0.75605469 
   29450         58.9    1.5495765    2.1478307   -4.6068835   -2.4590528    2.6966169    731.42857   0.75605469 
   29500           59    1.5503086    2.1411019   -4.6160766   -2.4749746     2.777922    731.42857   0.75878906 
   29550         59.1    1.4644058    2.0188256   -4.5399087   -2.5210831    3.0376605    731.42857   0.76015625 
   29600         59.2    1.5130997      2.08221   -4.5108861   -2.4286761    3.1736313    731.42857   0.76152344 
   29650         59.3    1.4978608    2.0724013   -4.5249437   -2.4525424    2.9731587    731.42857   0.75742188 
   29700         59.4    1.4751803    2.0373436   -4.5454709   -2.5081273    2.9388694    731.42857   0.75878906 
   29750         59.5    1.5101723    2.0894351   -4.6345591   -2.5451239     2.590042    731.42857   0.75742188 
   29800         59.6     1.458731     2.007392   -4.5853802   -2.5779882    2.8643691    731.42857   0.76152344 
   29850         59.7    1.4524238     2.005915   -4.5727815   -2.5668666    2.8325422    731.42857   0.75878906 
   29900         59.8    1.5188509    2.0976562   -4.5995267   -2.5018705    2.7676596    731.42857   0.75878906 
   29950         59.9    1.5612958    2.1485337   -4.5665806   -2.4180469    3.0164989    731.42857   0.76152344 
   30000           60    1.5235844    2.0891367   -4.5374182   -2.4482815    3.2554088    731.42857   0.76425781 
   30050         60.1    1.6055127     2.205422   -4.6606635   -2.4552415    2.7880007    731.42857   0.76289063 
   30100         60.2    1.5430274    2.1195887   -4.6174713   -2.4978826    2.8827054    731.42857   0.76289063 
   30150         60.3    1.5160385    2.0862541   -4.6492051    -2.562951    2.6847047    731.42857   0.76152344 
   30200         60.4     1.502949    2.0719612   -4.6140066   -2.5420454    2.8076362    731.42857   0.76015625 
   30250         60.5    1.4522577    2.0020783   -4.5656403    -2.563562     2.996341    731.42857   0.76015625 
   30300         60.6    1.4575195    2.0165861   -4.5655379   -2.5489519    2.8472016    731.42857   0.75742188 
   30350         60.7    1.4902174     2.061826   -4.6111367   -2.5493107    2.6915547    731.42857   0.75742188 
   30400         60.8    1.4834881    2.0488173   -4.6019817   -2.5531644    2.7952143    731.42857   0.75878906 
   30450         60.9    1.4862473    2.0489363   -4.5847696   -2.5358332    2.8542383    731.42857   0.76015625 
   30500           61    1.4494957     2.001871   -4.5774135   -2.5755425    2.8632466    731.42857   0.75878906 
   30550         61.1    1.4197998    1.9643981   -4.6010829   -2.6366848    2.6838756    731.42857   0.75742188 
   30600         61.2    1.4309637    1.9834243   -4.6066657   -2.6232414    2.6555053    731.42857   0.75605469 
   30650         61.3    1.4804537    2.0483173    -4.638673   -2.5903557    2.5097244    731.42857   0.75742188 
   30700         61.4     1.477599    2.0406841   -4.6237389   -2.5830548    2.5994896    731.42857   0.75878906 
   30750         61.5    1.4948145    2.0719265   -4.6026772   -2.5307507    2.6766102    731.42857   0.75605469 
   30800         61.6    1.4859838    2.0634177   -4.4722469   -2.4088292    3.1127184    731.42857    0.7546875 
   30850         61.7    1.5549085    2.1630443    -4.558361   -2.3953167    2.7108182    731.42857   0.75332031 
   30900         61.8    1.5314451    2.1226992    -4.565212   -2.4425128    2.7722769    731.42857   0.75605469 
   30950         61.9    1.5132857    2.0899702   -4.5558689   -2.4658987    2.8705331    731.42857   0.75878906 
   31000           62    1.4723527    2.0371089   -4.5719245   -2.5348156    2.7335035    731.42857   0.75742188 
   31050         62.1    1.5264033     2.111892   -4.6160651   -2.5041731    2.5795919    731.42857   0.75742188 
   31100         62.2    1.4818949    2.0540189   -4.5611091   -2.5070902    2.6738999    731.42857   0.75605469 
   31150         62.3    1.4917634    2.0714431   -4.6307268   -2.5592836     2.418094    731.42857    0.7546875 
   31200         62.4      1.49509    2.0760625   -4.6048033   -2.5287408    2.5244911    731.42857    0.7546875 
   31250         62.5    1.4846907    2.0616221   -4.6048139   -2.5431918    2.5235995    731.42857    0.7546875 
   31300         62.6    1.4642573    2.0332486   -4.5395421   -2.5062934    2.8514457    731.42857    0.7546875 
   31350         62.7    1.4985709     2.077133   -4.6246914   -2.5475584    2.5097225    731.42857   0.75605469 
   31400         62.8    1.4670531    2.0297766   -4.5838234   -2.5540468    2.7090235    731.42857   0.75742188 
   31450         62.9    1.4613157    2.0254946   -4.6018078   -2.5763133    2.5654866    731.42857   0.75605469 
   31500           63    1.4914622    2.0635484   -4.6263138   -2.5627655    2.5412163    731.42857   0.75742188 
   31550         63.1    1.5030068    2.0832816    -4.641884   -2.5586023     2.440862    731.42857   0.75605469 
   31600         63.2    1.5257233    2.1147684   -4.6189337   -2.5041653    2.5776802    731.42857   0.75605469 
   31650         63.3    1.4898714    2.0576333   -4.5340785   -2.4764453    3.0197306    731.42857   0.75878906 
   31700         63.4    1.4873311    2.0541248   -4.5386124   -2.4844876     2.992568    731.42857   0.75878906 
   31750         63.5    1.5069304    2.0811931   -4.5552734   -2.4740803    2.9144225    731.42857   0.75878906 
   31800         63.6    1.4812062    2.0456659   -4.5713655   -2.5256997    2.7907158    731.42857   0.75878906 
   31850         63.7    1.5013007    2.0734181   -4.5937516   -2.5203335     2.827069    731.42857   0.75878906 
   31900         63.8    1.5147161    2.0995116   -4.5920955   -2.4925838    2.8014995    731.42857   0.75605469 
   31950         63.9    1.5177599    2.0999332   -4.5697871   -2.4698539    2.9324378    731.42857   0.75742188 
   32000           64     1.549426    2.1360342   -4.5740776   -2.4380433    2.9673161    731.42857   0.76015625 
   32050         64.1    1.5314676    2.1074864   -4.5671354   -2.4596489    3.0335974    731.42857   0.76152344 
   32100         64.2    1.5541089    2.1502247   -4.6913038   -2.5410791    2.4549278    731.42857   0.75742188 
   32150         64.3    1.4929019    2.0618186    -4.609135   -2.5473163    2.7868789    731.42857   0.75878906 
   32200         64.4    1.4588789    2.0148301   -4.5974547   -2.5826246    2.7855042    731.42857   0.75878906 
   32250         64.5    1.4815764    2.0461771   -4.6482966   -2.6021195     2.477861    731.42857   0.75878906 
   32300         64.6    1.4603048     2.013172   -4.6593566   -2.6461846    2.4458072    731.42857   0.76015625 
   32350         64.7    1.5406505    2.1239364   -4.7142383   -2.5903019    2.2595815    731.42857   0.76015625 
   32400         64.8     1.386621    1.9047401   -4.6122038   -2.7074637    2.6629578    731.42857   0.76289063 
   32450         64.9    1.4355847    1.9719995   -4.6657675   -2.6937681    2.4765956    731.42857   0.76289063 
   32500           65    1.4519451    1.9909051   -4.7049407   -2.7140356    2.3350583    731.42857   0.76425781 
   32550         65.1    1.4186923    1.9487951    -4.685918   -2.7371229    2.3751058    731.42857   0.76289063 
   32600         65.2    1.4237175    1.9627329   -4.6650243   -2.7022915    2.3294202    731.42857   0.76015625 
   32650         65.3    1.4317847    1.9738542    -4.661906   -2.6880518    2.4689251    731.42857   0.76015625 
   32700         65.4    1.4845436    2.0356041   -4.6660176   -2.6304135    2.5863915    731.42857   0.76425781 
   32750         65.5    1.4669297      2.00786   -4.6419264   -2.6340664    2.7763044    731.42857     0.765625 
   32800         65.6    1.5607102    2.1362221   -4.6124642   -2.4762421    2.9596563    731.42857     0.765625 
   32850         65.7     1.541724    2.1102347   -4.5880573   -2.4778226     3.069406    731.42857     0.765625 
   32900         65.8    1.5047032    2.0706553   -4.6431538   -2.5724985    2.6676372    731.42857   0.76152344 
   32950         65.9    1.5075475    2.0745694   -4.6275348   -2.5529654    2.6971154    731.42857   0.76152344 
   33000           66    1.5413189     2.121043   -4.5981587   -2.4771157    2.8717176    731.42857   0.76152344 
   33050         66.1    1.5131309    2.0859979     -4.58804   -2.5020421     2.792412    731.42857   0.76015625 
   33100         66.2    1.4630465    2.0133307   -4.5787304   -2.5653997    2.8260779    731.42857   0.76152344 
   33150         66.3    1.5091309    2.0730266   -4.6216348   -2.5486082    2.7233484    731.42857   0.76289063 
   33200         66.4    1.4617691    2.0079677   -4.5852951   -2.5773273    2.8868825    731.42857   0.76289063 
   33250         66.5    1.4955725     2.054402   -4.6385683   -2.5841662    2.7176733    731.42857   0.76289063 
   33300         66.6    1.4645106    2.0189702   -4.6193292    -2.600359    2.6535537    731.42857   0.76015625 
   33350         66.7    1.4782844    2.0379587   -4.6275353   -2.5895766    2.6307105    731.42857   0.76015625 
   33400         66.8    1.4868235    2.0497306   -4.6231088   -2.5733782    2.7074073    731.42857   0.76015625 
   33450         66.9    1.4772886    2.0365858   -4.6398262   -2.6032404    2.6739652    731.42857   0.76015625 
   33500           67    1.4892578    2.0530865   -4.6888664   -2.6357798    2.4369115    731.42857   0.76015625 
   33550         67.1    1.5040213    2.0734395   -4.6803192   -2.6068797    2.4484876    731.42857   0.76015625 
   33600         67.2    1.4768467    2.0286792    -4.628455   -2.5997758    2.7521425    731.42857   0.76289063 
   33650         67.3     1.500138    2.0606735   -4.6395443   -2.5788708    2.7212464    731.42857   0.76289063 
   33700         67.4    1.5302628    2.0982942   -4.6821184   -2.5838242    2.6141066    731.42857   0.76425781 
   33750         67.5    1.4724068    2.0298557   -4.5917085   -2.5618528    2.8460629    731.42857   0.76015625 
   33800         67.6    1.4913698    2.0559981   -4.6327889   -2.5767908    2.5996703    731.42857   0.76015625 
   33850         67.7    1.4892731    2.0494216   -4.6799687    -2.630547    2.4243747    731.42857   0.76152344 
   33900         67.8    1.4370206    1.9739718    -4.586649   -2.6126772    2.7637252    731.42857   0.76289063 
   33950         67.9    1.4498645    1.9951905    -4.604844   -2.6096534    2.7076477    731.42857   0.76152344 
   34000           68    1.4563845    2.0041629   -4.6482963   -2.6441334    2.5486856    731.42857   0.76152344 
   34050         68.1    1.4476464    1.9957211   -4.6374129   -2.6416917    2.5614493    731.42857   0.76015625 
   34100         68.2    1.4411604    1.9867796   -4.6469016    -2.660122    2.4585237    731.42857   0.76015625 
   34150         68.3     1.417571    1.9542593   -4.6212645   -2.6670051    2.5417757    731.42857   0.76015625 
   34200         68.4     1.443962     2.001441   -4.6856121   -2.6841711    2.1842433    731.42857   0.75605469 
   34250         68.5    1.4605957    2.0281642   -4.6513498   -2.6231857    2.2799822    731.42857    0.7546875 
   34300         68.6    1.4721338    2.0478957    -4.612221   -2.5643253    2.4563504    731.42857   0.75332031 
   34350         68.7    1.3927608    1.9374794   -4.5748078   -2.6373284    2.5910942    731.42857   0.75332031 
   34400         68.8    1.4707904     2.049747    -4.639579    -2.589832    2.3075554    731.42857   0.75195313 
   34450         68.9    1.4783094    2.0490491   -4.5797183   -2.5306692    2.6211585    731.42857   0.75605469 
   34500           69    1.4736961    2.0426548   -4.5576409   -2.5149862    2.6775433    731.42857   0.75605469 
   34550         69.1    1.5167717    2.0985659   -4.5791372   -2.4805713    2.7876439    731.42857   0.75742188 
   34600         69.2     1.519611    2.1062963   -4.6115333    -2.505237    2.6587779    731.42857   0.75605469 
   34650         69.3    1.4908816    2.0739759   -4.5749257   -2.5009499    2.6284831    731.42857   0.75332031 
   34700         69.4    1.4852686    2.0624246   -4.5963227   -2.5338981    2.5846184    731.42857    0.7546875 
   34750         69.5    1.5064222    2.0955946   -4.6074953   -2.5119006    2.5338684    731.42857   0.75332031 
   34800         69.6    1.4682695    2.0425201   -4.5665568   -2.5240367    2.6854711    731.42857   0.75332031 
   34850         69.7    1.4829041    2.0554177   -4.5544125   -2.4989947    2.8651548    731.42857   0.75605469 
   34900         69.8    1.5284667     2.118571   -4.6212637   -2.5026927    2.5965489    731.42857   0.75605469 
   34950         69.9    1.5237812    2.1120765   -4.6062548   -2.4941783     2.626359    731.42857   0.75605469 
   35000           70    1.5189835    2.1016262   -4.5538073   -2.4521811    2.7885439    731.42857   0.75742188 
   35050         70.1    1.4681161    2.0275874   -4.5256083   -2.4980209     2.935352    731.42857   0.75878906 
   35100         70.2    1.5148115    2.0920775   -4.6087697   -2.5166922    2.5812213    731.42857   0.75878906 
   35150         70.3    1.5378789    2.1239355   -4.6263914    -2.502456    2.5572562    731.42857   0.75878906 
   35200         70.4    1.5017487    2.0703065     -4.58361   -2.5133036    2.7433205    731.42857   0.76015625 
   35250         70.5    1.5207876    2.0965534   -4.5436033   -2.4470499    2.8896524    731.42857   0.76015625 
   35300         70.6    1.5441427    2.1325862   -4.5831367   -2.4505505    2.7489385    731.42857   0.75878906 
   35350         70.7    1.5026282    2.0789973   -4.5684873     -2.48949    2.7675878    731.42857   0.75742188 
   35400         70.8    1.5245917    2.1093855   -4.6414653   -2.5320799    2.4772052    731.42857   0.75742188 
   35450         70.9    1.4779151    2.0448049   -4.5977924   -2.5529875     2.613656    731.42857   0.75742188 
   35500           71    1.4845408    2.0539721   -4.5890526   -2.5350805    2.6216638    731.42857   0.75742188 
   35550         71.1    1.4513315    2.0116557    -4.562668   -2.5510123    2.6658834    731.42857   0.75605469 
   35600         71.2    1.5354136    2.1281998   -4.6246355   -2.4964357    2.4517045    731.42857   0.75605469 
   35650         71.3    1.4928647    2.0692239   -4.5718436   -2.5026196    2.7195315    731.42857   0.75605469 
   35700         71.4    1.4712148    2.0355346   -4.5926391   -2.5571045    2.6345414    731.42857   0.75742188 
   35750         71.5    1.4830577    2.0556306    -4.625295   -2.5696644     2.455035    731.42857   0.75605469 
   35800         71.6    1.4702987    2.0379456   -4.5937589   -2.5558133    2.6133159    731.42857   0.75605469 
   35850         71.7    1.4670625      2.03346   -4.5629965   -2.5295364    2.8067504    731.42857   0.75605469 
   35900         71.8    1.4809239    2.0489678   -4.5375943   -2.4886265    2.9932809    731.42857   0.75742188 
   35950         71.9    1.5401628    2.1270897   -4.5377705   -2.4106809    3.0498053    731.42857   0.75878906 
   36000           72    1.5251083    2.1101002   -4.5633116   -2.4532114     2.838899    731.42857   0.75742188 
   36050         72.1    1.5418289    2.1293907    -4.578767   -2.4493762    2.8106432    731.42857   0.75878906 
   36100         72.2    1.5322394    2.1123408   -4.5794918    -2.467151    2.9074346    731.42857   0.76015625 
   36150         72.3    1.4815217     2.049795   -4.5125491   -2.4627542     3.060713    731.42857   0.75742188 
   36200         72.4    1.5141882    2.0949915   -4.5651046   -2.4701131    2.8109226    731.42857   0.75742188 
   36250         72.5    1.5081928    2.0904697   -4.5745995   -2.4841298    2.7199876    731.42857   0.75605469 
   36300         72.6    1.4904188    2.0621047   -4.5844227    -2.522318    2.6895378    731.42857   0.75742188 
   36350         72.7     1.521691    2.1053721   -4.5837257   -2.4783536    2.6924866    731.42857   0.75742188 
   36400         72.8    1.5201658    2.0994722   -4.5535751   -2.4541028    2.8826337    731.42857   0.75878906 
   36450         72.9     1.541197     2.128518   -4.5633904   -2.4348724    2.9386634    731.42857   0.75878906 
   36500           73    1.4945264    2.0640621   -4.5648046   -2.5007425    2.8341164    731.42857   0.75878906 
   36550         73.1    1.4787098    2.0570437   -4.6003617    -2.543318    2.4142971    731.42857   0.75332031 
   36600         73.2    1.5349364    2.1313926   -4.6292833   -2.4978906    2.3987696    731.42857    0.7546875 
   36650         73.3    1.4084696    1.9736598   -4.5011451   -2.5274852    2.7454359    731.42857   0.74785156 
   36700         73.4    1.5005181    2.0988086   -4.5821623   -2.4833537    2.6366133    731.42857   0.74921875 
   36750         73.5    1.4584106    2.0361963   -4.5114166   -2.4752203    2.9776878    731.42857   0.75058594 
   36800         73.6    1.5270598    2.1320425   -4.6075772   -2.4755347    2.5541824    731.42857   0.75058594 
   36850         73.7    1.4772632    2.0587677   -4.5240483   -2.4652805    2.8527353    731.42857   0.75195313 
   36900         73.8    1.4794539    2.0543503   -4.5267704   -2.4724201    2.9139937    731.42857    0.7546875 
   36950         73.9    1.4605448    2.0280935   -4.5802841   -2.5521906    2.7328323    731.42857    0.7546875 
   37000           74    1.4830161    2.0518626   -4.5434984   -2.4916358    2.9223148    731.42857   0.75742188 
   37050         74.1    1.5326556    2.1205424   -4.6172744    -2.496732    2.6602809    731.42857   0.75742188 
   37100         74.2    1.4580519    2.0209706   -4.5711955   -2.5502248    2.7778997    731.42857   0.75605469 
   37150         74.3    1.4952225    2.0762464   -4.5790412   -2.5027948    2.6888148    731.42857    0.7546875 
   37200         74.4    1.4899452    2.0651773   -4.5233176   -2.4581404    2.9982954    731.42857   0.75605469 
   37250         74.5    1.4722052    2.0369048   -4.5310406   -2.4941358    3.0460061    731.42857   0.75742188 
   37300         74.6    1.5143856    2.0877276   -4.5571062   -2.4693786    3.0702682    731.42857   0.76015625 
   37350         74.7    1.5117369    2.0915999   -4.5510884   -2.4594885    2.9515771    731.42857   0.75742188 
   37400         74.8    1.4892199    2.0641719   -4.5849623   -2.5207904     2.748229    731.42857   0.75605469 
   37450         74.9    1.4575699    2.0239626   -4.5312248   -2.5072622    2.9365832    731.42857    0.7546875 
   37500           75    1.5141341    2.0949165   -4.5706651   -2.4757486    2.8461288    731.42857   0.75742188 
   37550         75.1    1.4890297    2.0601828   -4.5428072   -2.4826244    2.9259726    731.42857   0.75742188 
   37600         75.2    1.5442583    2.1365957     -4.57711   -2.4405143    2.8563105    731.42857   0.75742188 
   37650         75.3    1.5135999    2.0904042   -4.5523712    -2.461967    3.0413378    731.42857   0.75878906 
   37700         75.4    1.4992719    2.0743536   -4.5516847   -2.4773311    2.9487074    731.42857   0.75742188 
   37750         75.5    1.5162318    2.0978189    -4.604048    -2.506229    2.7559271    731.42857   0.75742188 
   37800         75.6    1.5193506     2.102134   -4.6117857   -2.5096517    2.7542726    731.42857   0.75742188 
   37850         75.7      1.52694    2.1126345   -4.5548043   -2.4421698    2.9601488    731.42857   0.75742188 
   37900         75.8    1.5316721    2.1191817   -4.5527472   -2.4335656    2.9840679    731.42857   0.75742188 
   37950         75.9    1.4998109    2.0826179   -4.5118481   -2.4292302    3.0511345    731.42857    0.7546875 
   38000           76     1.504741    2.0856853   -4.5236532   -2.4379679    3.0012406    731.42857   0.75605469 
   38050         76.1    1.4680594    2.0348418   -4.4841612   -2.4493193    3.1306169    731.42857   0.75605469 
   38100         76.2     1.538123    2.1319553   -4.5807157   -2.4487604    2.7301616    731.42857   0.75605469 
   38150         76.3    1.4998576    2.0714249    -4.551499   -2.4800742    2.8832752    731.42857   0.75878906 
   38200         76.4    1.5159944    2.0899455   -4.5629667   -2.4730212    2.9284332    731.42857   0.76015625 
   38250         76.5    1.4883552    2.0555392   -4.5597924   -2.5042532    2.8731602    731.42857   0.75878906 
   38300         76.6    1.4606915    2.0173333   -4.5572038   -2.5398704    2.8358998    731.42857   0.75878906 
   38350         76.7    1.4760785    2.0459569   -4.5657421   -2.5197853    2.7049388    731.42857   0.75605469 
   38400         76.8    1.5120753    2.0882986   -4.5834752   -2.4951766      2.71121    731.42857   0.75878906 
   38450         76.9    1.5408592    2.1318927   -4.5804103   -2.4485176    2.7432536    731.42857   0.75742188 
   38500           77    1.5252031    2.1140474   -4.5636602   -2.4496128    2.7035147    731.42857   0.75605469 
   38550         77.1    1.4952221    2.0724913   -4.4999902   -2.4274988    2.9588375    731.42857   0.75605469 
   38600         77.2     1.520536    2.1113965   -4.4334622   -2.3220657    3.2789878    731.42857    0.7546875 
   38650         77.3    1.4835623    2.0675464   -4.4419817   -2.3744353    3.1927403    731.42857   0.75195313 
   38700         77.4    1.5584313    2.1679449   -4.5346828   -2.3667379    2.8115255    731.42857   0.75332031 
   38750         77.5    1.4872485    2.0726836   -4.4501452   -2.3774615     3.041036    731.42857   0.75195313 
   38800         77.6    1.5559999    2.1803911   -4.5379926   -2.3576015    2.6347762    731.42857   0.74785156 
   38850         77.7    1.5615859    2.1922264   -4.5476812   -2.3554549    2.5792844    731.42857   0.74648438 
   38900         77.8    1.5027312    2.1096035   -4.4048003   -2.2951969    3.0626079    731.42857   0.74648438 
   38950         77.9    1.4998231    2.1055209   -4.3986146   -2.2930937    3.0890491    731.42857   0.74648438 
   39000           78    1.4913307    2.0935989    -4.486023   -2.3924241    2.7129307    731.42857   0.74648438 
   39050         78.1    1.4602493    2.0462177   -4.4581187    -2.411901    2.8869541    731.42857   0.74785156 
   39100         78.2    1.4823471    2.0809873   -4.5351639   -2.4541767    2.4942689    731.42857   0.74648438 
   39150         78.3    1.4465821    2.0270662   -4.4987663   -2.4717002    2.7306137    731.42857   0.74785156 
   39200         78.4    1.4552417    2.0354794   -4.4778113   -2.4423319    2.8267439    731.42857   0.74921875 
   39250         78.5    1.4557043    2.0361266   -4.5280961   -2.4919696     2.582164    731.42857   0.74921875 
   39300         78.6    1.4346658    2.0066996   -4.5108452   -2.5041457     2.640149    731.42857   0.74921875 
   39350         78.7    1.4449586    2.0210963   -4.5271261   -2.5060299    2.6817715    731.42857   0.74921875 
   39400         78.8    1.4805885    2.0671604   -4.5456189   -2.4784585    2.6645747    731.42857   0.75058594 
   39450         78.9      1.53785    2.1354384   -4.5751102   -2.4396718    2.7579521    731.42857    0.7546875 
   39500           79     1.486373    2.0602258   -4.5262009    -2.465975    2.9480612    731.42857   0.75605469 
   39550         79.1    1.4601141    2.0165359   -4.5576718   -2.5411359    2.8828381    731.42857   0.75878906 
   39600         79.2     1.484587    2.0503351   -4.5691491   -2.5188141    2.8315802    731.42857   0.75878906 
   39650         79.3    1.4746535     2.032953   -4.5400755   -2.5071225    2.9589178    731.42857   0.76015625 
   39700         79.4    1.5103446    2.0821567   -4.5014642   -2.4193075    3.1099034    731.42857   0.76015625 
   39750         79.5    1.5314249    2.1074277   -4.5444268   -2.4369991    3.0708431    731.42857   0.76152344 
   39800         79.6     1.526378    2.1042603    -4.526278   -2.4220177    3.1131914    731.42857   0.76015625 
   39850         79.7    1.4838702     2.049345   -4.5035545   -2.4542095    3.0888398    731.42857   0.75878906 
   39900         79.8    1.4415234     1.998061   -4.5203353   -2.5222743    2.8409813    731.42857   0.75605469 
   39950         79.9    1.4913194    2.0708267   -4.5139899   -2.4431633    2.9289727    731.42857    0.7546875 
   40000           80    1.4965529    2.0705918   -4.5610941   -2.4905023    2.8515356    731.42857   0.75742188 
   40050         80.1    1.5284593    2.1185607   -4.5650044   -2.4464437    2.8398543    731.42857   0.75605469 
   40100         80.2    1.4746578    2.0476906   -4.4982983   -2.4506077    3.0223086    731.42857    0.7546875 
   40150         80.3    1.4902984    2.0694089   -4.5507308   -2.4813219     2.831453    731.42857    0.7546875 
   40200         80.4    1.4734554     2.046021   -4.5055852   -2.4595643    2.9626742    731.42857    0.7546875 
   40250         80.5    1.4765851    2.0429647    -4.533843   -2.4908783    2.9693251    731.42857   0.75742188 
   40300         80.6    1.4790206    2.0463345   -4.5603557   -2.5140212    2.8855694    731.42857   0.75742188 
   40350         80.7     1.465143    2.0271338   -4.5381186   -2.5109848     2.975779    731.42857   0.75742188 
   40400         80.8    1.4649884    2.0269199   -4.5231908   -2.4962708    3.0331951    731.42857   0.75742188 
   40450         80.9    1.5098021    2.0964915   -4.5815398   -2.4850483    2.6790369    731.42857    0.7546875 
   40500           81    1.4349451    1.9961623    -4.550318   -2.5541557     2.694696    731.42857   0.75332031 
   40550         81.1    1.4563343    2.0296004   -4.6245168   -2.5949163    2.3503254    731.42857   0.75195313 
   40600         81.2    1.3614199    1.8973242   -4.5060233    -2.608699    2.7529254    731.42857   0.75195313 
   40650         81.3    1.4353541    2.0003616   -4.5716557   -2.5712941    2.4608279    731.42857   0.75195313 
   40700         81.4    1.4301573    1.9967497   -4.5097981   -2.5130484    2.7812912    731.42857   0.75058594 
   40750         81.5     1.487627    2.0694484   -4.6018521   -2.5324037    2.5178399    731.42857   0.75332031 
   40800         81.6    1.4109039    1.9698686   -4.4925828   -2.5227142    2.8257215    731.42857   0.75058594 
   40850         81.7    1.4735627    2.0573513   -4.5457372   -2.4883859    2.6788093    731.42857   0.75058594 
   40900         81.8    1.4601452    2.0460719    -4.531288   -2.4852161    2.6240379    731.42857   0.74785156 
   40950         81.9      1.47192    2.0625716   -4.4374585   -2.3748869    2.9967997    731.42857   0.74785156 
   41000           82      1.44926    2.0308186   -4.4585959   -2.4277773    2.9028152    731.42857   0.74785156 
   41050         82.1    1.4851259    2.0772792   -4.4864708   -2.4091916    2.8806955    731.42857   0.74921875 
   41100         82.2    1.5259946    2.1228219   -4.5002073   -2.3773853      3.02336    731.42857   0.75332031 
   41150         82.3    1.4768073    2.0581323   -4.4131971   -2.3550648    3.2686145    731.42857   0.75195313 
   41200         82.4    1.5213226    2.1240323   -4.4809011   -2.3568687    2.9423866    731.42857   0.75058594 
   41250         82.5    1.5269692    2.1280398    -4.502389   -2.3743491    2.8553529    731.42857   0.75195313 
   41300         82.6    1.4913078    2.0745689   -4.4831162   -2.4085473    2.9570757    731.42857   0.75332031 
   41350         82.7    1.4868108    2.0720736   -4.4935611   -2.4214876    2.9185074    731.42857   0.75195313 
   41400         82.8    1.4643025    2.0481531   -4.5081012   -2.4599481    2.7450027    731.42857   0.74921875 
   41450         82.9    1.4714599    2.0694936   -4.4645953   -2.3951017     2.823392    731.42857   0.74511719 
   41500           83     1.463788    2.0587037   -4.5105117   -2.4518081    2.6029725    731.42857   0.74511719 
   41550         83.1    1.4500782    2.0394219   -4.4693163   -2.4298944    2.8129957    731.42857   0.74511719 
   41600         83.2    1.4633283    2.0618404    -4.490617   -2.4287766    2.6806853    731.42857      0.74375 
   41650         83.3    1.4009679     1.981258   -4.4627252   -2.4814671    2.6345464    731.42857   0.74101563 
   41700         83.4    1.4040605    1.9783316   -4.4423498   -2.4640182     2.791929    731.42857      0.74375 
   41750         83.5    1.4612919    2.0589711   -4.4675185   -2.4085475    2.6923833    731.42857      0.74375 
   41800         83.6    1.4102699    1.9834347   -4.4516206   -2.4681859    2.6980875    731.42857   0.74511719 
   41850         83.7    1.4698126    2.0671768   -4.5081766   -2.4409999    2.5647106    731.42857   0.74511719 
   41900         83.8    1.4068131    1.9822099   -4.4848061   -2.5025961    2.5902343    731.42857      0.74375 
   41950         83.9    1.4173208    1.9933511   -4.5197097   -2.5263586    2.4862978    731.42857   0.74511719 
   42000           84    1.4409612    2.0228879    -4.501556   -2.4786682    2.6832321    731.42857   0.74648438 
   42050         84.1    1.4257911    2.0015914   -4.4848482   -2.4832568    2.7667097    731.42857   0.74648438 
   42100         84.2    1.4666268    2.0589183   -4.5350316   -2.4761133    2.5764914    731.42857   0.74648438 
   42150         84.3    1.4511237    2.0334303    -4.532344   -2.4989137    2.5926222    731.42857   0.74785156 
   42200         84.4    1.4276997    2.0006066   -4.4720901   -2.4714836     2.790037    731.42857   0.74785156 
   42250         84.5    1.4710417    2.0651163   -4.5005926   -2.4354763    2.6263065    731.42857   0.74648438 
   42300         84.6    1.4371166    2.0211924   -4.5006784    -2.479486    2.6744039    731.42857   0.74511719 
   42350         84.7    1.4430627    2.0258381   -4.4894587   -2.4636206    2.7499652    731.42857   0.74648438 
   42400         84.8     1.438298    2.0154578   -4.4418795   -2.4264217    3.0082506    731.42857   0.74785156 
   42450         84.9    1.4678996    2.0607051   -4.4848914   -2.4241862    2.8105442    731.42857   0.74648438 
   42500           85    1.4783596    2.0791974   -4.4324084    -2.353211    3.0851191    731.42857   0.74511719 
   42550         85.1    1.4846908    2.0881018   -4.5024793   -2.4143775    2.7865066    731.42857   0.74511719 
   42600         85.2     1.454885    2.0387008   -4.4858208     -2.44712    2.9211281    731.42857   0.74785156 
   42650         85.3    1.4431308    2.0259336   -4.4716273   -2.4456937    2.9117492    731.42857   0.74648438 
   42700         85.4    1.4497504     2.042709   -4.5022663   -2.4595574    2.7045585    731.42857      0.74375 
   42750         85.5    1.4151745    1.9939913   -4.4266186   -2.4326272    2.9376552    731.42857      0.74375 
   42800         85.6    1.3991248    1.9713771   -4.4436296   -2.4722525    2.8462735    731.42857      0.74375 
   42850         85.7    1.4211827    1.9951218    -4.482457   -2.4873352    2.7787428    731.42857   0.74648438 
   42900         85.8    1.3900449    1.9549897   -4.4777034   -2.5227136    2.7665207    731.42857   0.74511719 
   42950         85.9    1.3812274     1.953341   -4.5177779   -2.5644369    2.4657741    731.42857   0.74101563 
   43000           86    1.4247819    2.0223987   -4.5281636   -2.5057649    2.3846655    731.42857   0.73828125 
   43050         86.1    1.4605639    2.0617352   -4.5035704   -2.4418352    2.6241729    731.42857   0.74238281 
   43100         86.2    1.4492187    2.0344801   -4.4868178   -2.4523377     2.823207    731.42857   0.74648438 
   43150         86.3    1.4339593     2.009378   -4.5122252   -2.5028471    2.7826921    731.42857   0.74785156 
   43200         86.4    1.4657043    2.0538617   -4.4931296   -2.4392679    2.8444114    731.42857   0.74785156 
   43250         86.5    1.4767804    2.0618437   -4.4863315   -2.4244878    3.0458615    731.42857   0.75058594 
   43300         86.6    1.4636836    2.0472873   -4.5020957   -2.4548084    2.9477285    731.42857   0.74921875 
   43350         86.7    1.4914853    2.0748157   -4.4999371   -2.4251214    2.9947384    731.42857   0.75332031 
   43400         86.8    1.4973746    2.0867958   -4.5620046   -2.4752089    2.6837457    731.42857   0.75195313 
   43450         86.9    1.5003184    2.0947069   -4.5425783   -2.4478714    2.7522414    731.42857   0.75058594 
   43500           87    1.4929996    2.0882923   -4.5449645   -2.4566722     2.699183    731.42857   0.74921875 
   43550         87.1    1.4611088    2.0436859   -4.5080921   -2.4644062    2.8306589    731.42857   0.74921875 
   43600         87.2     1.455808    2.0474804   -4.5402709   -2.4927905    2.5475777    731.42857   0.74511719 
   43650         87.3    1.4764617     2.072725   -4.5323345   -2.4596095    2.5591559    731.42857   0.74648438 
   43700         87.4    1.4550381    2.0389154    -4.534969   -2.4960537    2.5588365    731.42857   0.74785156 
   43750         87.5    1.4356897    2.0081317   -4.5712501   -2.5631184    2.5381093    731.42857   0.74921875 
   43800         87.6    1.4472564    2.0243103   -4.5354442   -2.5111339    2.6953631    731.42857   0.74921875 
   43850         87.7    1.4322951    1.9997344   -4.5059234    -2.506189    2.8294139    731.42857   0.75058594 
   43900         87.8    1.4192644    1.9779385   -4.4997415    -2.521803    2.9017891    731.42857   0.75195313 
   43950         87.9    1.4319582    2.0029123   -4.5035234   -2.5006111     2.810962    731.42857   0.74921875 
   44000           88     1.426727    1.9955953   -4.4970597   -2.5014644    2.7728777    731.42857   0.74921875 
   44050         88.1    1.3899712    1.9620865   -4.5311531   -2.5690666    2.3947477    731.42857   0.74238281 
   44100         88.2    1.3959399    1.9814592   -4.5081809   -2.5267217    2.3518108    731.42857   0.73828125 
   44150         88.3    1.4232389    2.0277187   -4.5727066   -2.5449879     2.120037    731.42857   0.73554688 
   44200         88.4    1.3838765    1.9716382   -4.5370347   -2.5653964    2.2318887    731.42857   0.73554688 
   44250         88.5    1.4062066    1.9997353   -4.5083617   -2.5086264    2.3898349    731.42857   0.73691406 
   44300         88.6    1.4778779    2.0977656   -4.5050967   -2.4073312    2.5205283    731.42857   0.73828125 
   44350         88.7    1.4984229    2.1190796   -4.4714887   -2.3524091    2.6804605    731.42857   0.74101563 
   44400         88.8    1.4654875     2.076333   -4.4774173   -2.4010843    2.5463347    731.42857   0.73964844 
   44450         88.9    1.4896847    2.1106161   -4.5198839   -2.4092678     2.385728    731.42857   0.73964844 
   44500           89    1.4662579    2.0735917   -4.4694967    -2.395905    2.6006843    731.42857   0.74101563 
   44550         89.1    1.4317894    2.0248461    -4.441167   -2.4163209    2.7679613    731.42857   0.74101563 
   44600         89.2    1.4470643     2.046448   -4.5211246   -2.4746766    2.4097393    731.42857   0.74101563 
   44650         89.3    1.4606894    2.0619123    -4.556222   -2.4943096    2.2955628    731.42857   0.74238281 
   44700         89.4    1.4642974    2.0670054   -4.5082868   -2.4412814    2.4739873    731.42857   0.74238281 
   44750         89.5    1.4204297    2.0124942   -4.4654479   -2.4529537    2.4906891    731.42857   0.73964844 
   44800         89.6    1.4313686    2.0355177    -4.473842   -2.4383243    2.3941258    731.42857   0.73691406 
   44850         89.7     1.454243    2.0680468   -4.4549307   -2.3868839    2.5605049    731.42857   0.73691406 
   44900         89.8    1.4584476    2.0778813   -4.4580248   -2.3801435    2.5189462    731.42857   0.73554688 
[...]
   51300        102.6    1.4173543    2.0306581    -4.420714   -2.3900559    2.3906692    731.42857   0.73144531 
   51350        102.7    1.4568756     2.067954   -4.4514817   -2.3835277    2.5302557    731.42857   0.73828125 
   51400        102.8    1.4175914    2.0234335   -4.4260825    -2.402649    2.4873879    731.42857   0.73417969 
   51450        102.9    1.3706586     1.960093   -4.4139802   -2.4538872    2.4620856    731.42857    0.7328125 
   51500          103     1.386687    1.9756424   -4.4337636   -2.4581212    2.4449018    731.42857   0.73554688 
   51550        103.1    1.4080816    2.0061237   -4.4517127    -2.445589    2.3731934    731.42857   0.73554688 
   51600        103.2    1.3779997     1.959623    -4.483968    -2.524345    2.2634628    731.42857   0.73691406 
   51650        103.3    1.3906873    1.9813417   -4.4687414   -2.4873997    2.2715823    731.42857   0.73554688 
   51700        103.4    1.3873828    1.9840091   -4.4743382   -2.4903291    2.1936768    731.42857    0.7328125 
   51750        103.5    1.4029393    2.0100056   -4.4611032   -2.4510977    2.2721136    731.42857   0.73144531 
   51800        103.6    1.4094076    2.0080129   -4.4949231   -2.4869103    2.2492018    731.42857   0.73554688 
   51850        103.7    1.3731305    1.9563282   -4.4394217   -2.4830936    2.4052115    731.42857   0.73554688 
   51900        103.8    1.3998353     1.994375    -4.406658    -2.412283    2.5420522    731.42857   0.73554688 
   51950        103.9    1.4604454    2.0846022   -4.4728885   -2.3882863    2.2732089    731.42857   0.73417969 
   52000          104    1.3833578    1.9819509    -4.444243   -2.4622921    2.2555092    731.42857   0.73144531 
   52050        104.1    1.4421248    2.0700162   -4.5128043   -2.4427881    2.0559984    731.42857   0.73007813 
   52100        104.2    1.3793657    1.9762313   -4.4318949   -2.4556636    2.3793767    731.42857   0.73144531 
   52150        104.3    1.3757591    1.9784604   -4.4459569   -2.4674965    2.1913252    731.42857   0.72871094 
   52200        104.4    1.3879553    1.9922617   -4.4737433   -2.4814815    2.1441302    731.42857   0.73007813 
   52250        104.5    1.3983924     2.007243   -4.4418931   -2.4346501    2.2995198    731.42857   0.73007813 
   52300        104.6    1.4224962    2.0304345   -4.4516377   -2.4212032    2.4072602    731.42857   0.73417969 
   52350        104.7     1.422587    2.0343525   -4.4458302   -2.4114777    2.4130117    731.42857    0.7328125 
   52400        104.8     1.412874    2.0129516   -4.4225971   -2.4096455    2.5951108    731.42857   0.73554688 
   52450        104.9    1.4291526     2.024853   -4.4543497   -2.4294967    2.5843142    731.42857   0.73964844 
   52500          105    1.4300545    2.0261308    -4.471486   -2.4453553    2.4771809    731.42857   0.73964844 
   52550        105.1    1.3970322    1.9830096   -4.4202516    -2.437242    2.6108805    731.42857   0.73828125 
   52600        105.2    1.4083814    2.0065508   -4.4384527   -2.4319019    2.4683101    731.42857   0.73554688 
   52650        105.3     1.421252    2.0286585   -4.4655646   -2.4369061    2.3574366    731.42857   0.73417969 
   52700        105.4    1.4152068    2.0162751   -4.4376746   -2.4213995    2.4962613    731.42857   0.73554688 
   52750        105.5    1.3469866     1.922654   -4.3766409   -2.4539869    2.7049925    731.42857   0.73417969 
   52800        105.6    1.3911817     1.985737   -4.4271341   -2.4413971    2.5312945    731.42857   0.73417969 
   52850        105.7    1.3945095    1.9942007   -4.4081594   -2.4139587    2.5881212    731.42857    0.7328125 
   52900        105.8    1.4029686    2.0062974   -4.4256752   -2.4193779    2.5486694    731.42857    0.7328125 
   52950        105.9    1.4156011    2.0319443   -4.4382246   -2.4062804    2.4191297    731.42857   0.73007813 
   53000          106    1.3870868       1.9985   -4.4228003   -2.4243002    2.3232237    731.42857   0.72734375 
   53050        106.1    1.3907157    2.0037285    -4.404127   -2.4003985    2.4091324    731.42857   0.72734375 
   53100        106.2    1.4260132    2.0430637   -4.3963333   -2.3532695    2.6304453    731.42857   0.73144531 
   53150        106.3    1.4137946    2.0331587   -4.4039024   -2.3707437    2.5133575    731.42857   0.72871094 
   53200        106.4    1.4087496    2.0221097   -4.3796184   -2.3575088    2.6394939    731.42857   0.73007813 
   53250        106.5    1.3930531    1.9884082   -4.3588581   -2.3704499    2.7862066    731.42857   0.73417969 
   53300        106.6    1.3925969    1.9951879   -4.4204117   -2.4252238    2.4762043    731.42857   0.73144531 
   53350        106.7    1.4133012    2.0098245   -4.4245361   -2.4147116    2.6434331    731.42857   0.73691406 
   53400        106.8    1.4156192    2.0168626   -4.3943789   -2.3775162    2.7081977    731.42857   0.73554688 
   53450        106.9    1.4108554    2.0175758   -4.4413163   -2.4237405    2.4121946    731.42857    0.7328125 
   53500          107    1.4402858    2.0481986   -4.4613818   -2.4131832    2.4461417    731.42857   0.73691406 
   53550        107.1    1.3986322     1.988964   -4.4320392   -2.4430751    2.5324113    731.42857   0.73691406 
   53600        107.2    1.3934851    1.9816444   -4.4780305   -2.4963861    2.3785762    731.42857   0.73691406 
   53650        107.3    1.3643465     1.936614   -4.4747867   -2.5381726    2.4078919    731.42857   0.73828125 
   53700        107.4    1.3677734    1.9486958   -4.4659749   -2.5172791    2.3375749    731.42857   0.73554688 
   53750        107.5    1.3900589    1.9804463   -4.5037923    -2.523346    2.1965682    731.42857   0.73554688 
   53800        107.6    1.3668989    1.9510763   -4.5018988   -2.5508225     2.191651    731.42857   0.73417969 
   53850        107.7    1.3596213    1.9370813   -4.4770645   -2.5399832    2.3457474    731.42857   0.73554688 
   53900        107.8    1.3914769    1.9824666   -4.4980007    -2.515534     2.258646    731.42857   0.73554688 
   53950        107.9    1.3570912    1.9334766   -4.4908024   -2.5573258    2.3022281    731.42857   0.73554688 
   54000          108    1.3480249    1.9169965   -4.4842252   -2.5672287    2.3672104    731.42857   0.73691406 
   54050        108.1    1.4105586    2.0059243   -4.4879803    -2.482056    2.3399245    731.42857   0.73691406 
   54100        108.2    1.3844519     1.972458   -4.4677566   -2.4952985    2.4081105    731.42857   0.73554688 
   54150        108.3    1.4288117    2.0281188    -4.494831   -2.4667122    2.3870246    731.42857   0.73828125 
   54200        108.4    1.3915376    1.9825531   -4.4664642   -2.4839111    2.2959949    731.42857   0.73554688 
   54250        108.5    1.4242873    2.0179597   -4.4702141   -2.4522544    2.4612319    731.42857   0.73964844 
   54300        108.6    1.4228466    2.0196516   -4.4590686    -2.439417    2.4593604    731.42857   0.73828125 
   54350        108.7    1.4121181    2.0231561   -4.4798995   -2.4567433    2.1727313    731.42857   0.73144531 
   54400        108.8    1.4145677    2.0191176   -4.4953095   -2.4761919    2.2534395    731.42857   0.73417969 
   54450        108.9    1.4278172     2.022961   -4.4466743   -2.4237133    2.6098124    731.42857   0.73964844 
   54500          109    1.4649225    2.0717032   -4.4663798   -2.3946766    2.5965321    731.42857   0.74101563 
   54550        109.1    1.4303613    2.0228264   -4.4629128   -2.4400864    2.6367706    731.42857   0.74101563 
   54600        109.2    1.4311217     2.016461   -4.5077888   -2.4913278     2.520183    731.42857      0.74375 
   54650        109.3    1.4476929      2.03981   -4.4969492   -2.4571392    2.6040796    731.42857      0.74375 
   54700        109.4    1.4395343    2.0320498   -4.4890152   -2.4569654     2.596304    731.42857   0.74238281 
   54750        109.5    1.4407426    2.0375077   -4.5061526   -2.4686449     2.434947    731.42857   0.74101563 
   54800        109.6    1.4219093    2.0183212   -4.5153775   -2.4970563    2.3256882    731.42857   0.73828125 
   54850        109.7    1.4165464    2.0069923   -4.5471874   -2.5401951    2.2363224    731.42857   0.73964844 
   54900        109.8    1.4201835     2.008433   -4.5615998   -2.5531668    2.2825392    731.42857   0.74101563 
   54950        109.9    1.4149405    1.9900035   -4.5506501   -2.5606466    2.3875229    731.42857   0.74511719 
   55000          110    1.4394941    2.0171338   -4.5255931   -2.5084592    2.6046439    731.42857   0.74785156 
   55050        110.1    1.4292978    2.0065142   -4.5169737   -2.5104595    2.6249611    731.42857   0.74648438 
   55100        110.2    1.4390868    2.0276839   -4.5694585   -2.5417746    2.3256754    731.42857      0.74375 
   55150        110.3    1.4224971    1.9969671   -4.5460139   -2.5490468    2.5034909    731.42857   0.74648438 
   55200        110.4    1.3806771    1.9347149   -4.5391064   -2.6043916    2.5115033    731.42857   0.74785156 
   55250        110.5    1.4139691    1.9813663     -4.55168   -2.5703137    2.4665656    731.42857   0.74785156 
   55300        110.6    1.4007526    1.9592644   -4.5151411   -2.5558768    2.6051117    731.42857   0.74921875 
   55350        110.7    1.4190668    1.9958068   -4.5187547   -2.5229479    2.4533187    731.42857   0.74511719 
   55400        110.8    1.4000352    1.9762927   -4.4843193   -2.5080266    2.4879812    731.42857   0.74238281 
   55450        110.9    1.4146223     1.996884   -4.4942124   -2.4973285    2.4309778    731.42857   0.74238281 
   55500          111    1.4241865    1.9993387   -4.5079738   -2.5086351    2.5252269    731.42857   0.74648438 
   55550        111.1    1.3945093    1.9648738   -4.4930238     -2.52815    2.5494014    731.42857      0.74375 
   55600        111.2    1.4073405    1.9829531   -4.4924457   -2.5094926    2.5393806    731.42857      0.74375 
   55650        111.3    1.4195536    1.9964914   -4.5326456   -2.5361542    2.3931508    731.42857   0.74511719 
   55700        111.4     1.437351    2.0178197   -4.4830138   -2.4651942    2.6540411    731.42857   0.74648438 
   55750        111.5    1.4513938    2.0375336   -4.4943963   -2.4568627    2.6662733    731.42857   0.74648438 
   55800        111.6    1.4751936    2.0747448   -4.4875918    -2.412847    2.6969852    731.42857   0.74511719 
   55850        111.7    1.4467268    2.0347084    -4.526895   -2.4921866    2.4931798    731.42857   0.74511719 
   55900        111.8    1.4456254    2.0331594   -4.5213757   -2.4882164    2.4378493    731.42857   0.74511719 
   55950        111.9    1.4149393    1.9936599   -4.5019856   -2.5083257    2.5292073    731.42857      0.74375 
   56000          112    1.4068448    1.9786174   -4.4726995    -2.494082    2.7222154    731.42857   0.74511719 
   56050        112.1    1.4263951    2.0061134   -4.5038374    -2.497724    2.6097818    731.42857   0.74511719 
   56100        112.2    1.4319316    2.0139002   -4.5222768   -2.5083767    2.5432108    731.42857   0.74511719 
   56150        112.3    1.4609514    2.0434658   -4.5417024   -2.4982366    2.6072861    731.42857   0.74921875 
   56200        112.4    1.4228706    1.9793654   -4.4810799   -2.5017145    2.9579944    731.42857   0.75332031 
   56250        112.5    1.4391575    1.9983953   -4.5002976   -2.5019023    2.8894646    731.42857    0.7546875 
   56300        112.6    1.4413433    2.0087084   -4.5183755   -2.5096671    2.8139612    731.42857   0.75195313 
   56350        112.7    1.4391273    2.0092734   -4.5009071   -2.4916337     2.844492    731.42857   0.75058594 
   56400        112.8    1.4749606    2.0593029   -4.5256031   -2.4663003    2.7479471    731.42857   0.75058594 
   56450        112.9    1.4195886    1.9747998   -4.5117593   -2.5369595    2.8036611    731.42857   0.75332031 
   56500          113    1.4557323    2.0250795   -4.5570915    -2.532012    2.6866282    731.42857   0.75332031 
   56550        113.1    1.4422086    2.0172498   -4.5350944   -2.5178446    2.6543961    731.42857   0.74921875 
   56600        113.2    1.4670081    2.0370683   -4.5112653    -2.474197    2.9643863    731.42857    0.7546875 
   56650        113.3    1.4434656    2.0080153   -4.5253997   -2.5173845    2.8340591    731.42857   0.75332031 
   56700        113.4    1.4480426    2.0143823   -4.5190312   -2.5046489     2.771054    731.42857   0.75332031 
   56750        113.5    1.4407069    2.0078215    -4.520237   -2.5124155    2.6972542    731.42857   0.75195313 
   56800        113.6    1.4736552    2.0500121   -4.5403585   -2.4903463    2.7101662    731.42857   0.75332031 
   56850        113.7    1.4798844    2.0661774   -4.5620273   -2.4958499    2.5492113    731.42857   0.75058594 
   56900        113.8    1.4534544    2.0292765   -4.5150922   -2.4858157    2.7305181    731.42857   0.75058594 
   56950        113.9    1.4535898    2.0294656   -4.5058685   -2.4764029    2.8021177    731.42857   0.75058594 
   57000          114    1.4539804    2.0300109   -4.4841548   -2.4541439    2.8762458    731.42857   0.75058594 
   57050        114.1    1.4501537    2.0283629    -4.518074   -2.4897111    2.6438941    731.42857   0.74921875 
   57100        114.2    1.4474939    2.0246425   -4.5331373   -2.5084948    2.5725194    731.42857   0.74921875 
   57150        114.3    1.4569466    2.0341522   -4.5340446   -2.4998923    2.6813142    731.42857   0.75058594 
   57200        114.4    1.4206681    1.9907534    -4.532813   -2.5420595    2.6144312    731.42857   0.74785156 
   57250        114.5    1.4220972     1.992756   -4.5399895   -2.5472335    2.5677075    731.42857   0.74785156 
   57300        114.6      1.42249    1.9969571   -4.4984998   -2.5015427     2.725519    731.42857   0.74648438 
   57350        114.7    1.4478554    2.0288504   -4.5590741   -2.5302237     2.502668    731.42857   0.74785156 
   57400        114.8    1.4188506    1.9882066   -4.5072444   -2.5190378    2.6643529    731.42857   0.74785156 
   57450        114.9    1.4395531    2.0283409   -4.5267254   -2.4983845    2.4664337    731.42857      0.74375 
   57500          115    1.4145815    1.9931557   -4.5492735   -2.5561178    2.3580302    731.42857      0.74375 
   57550        115.1    1.4545585    2.0494836   -4.6009043   -2.5514207    2.1624061    731.42857      0.74375 
   57600        115.2    1.3926642    1.9658879   -4.4963454   -2.5304575    2.5298507    731.42857   0.74238281 
   57650        115.3     1.431879     2.017528   -4.5449847   -2.5274567    2.3925634    731.42857      0.74375 
   57700        115.4    1.3844382    1.9435383     -4.49071   -2.5471717     2.650974    731.42857   0.74648438 
   57750        115.5    1.4034992     1.970297   -4.4848924   -2.5145953    2.7021007    731.42857   0.74648438 
   57800        115.6    1.4206774    1.9907664   -4.5242464   -2.5334801     2.582232    731.42857   0.74785156 
   57850        115.7    1.4106572    1.9731181   -4.4942729   -2.5211548     2.748066    731.42857   0.74921875 
   57900        115.8    1.3942302    1.9537066   -4.5103409   -2.5566343    2.5901077    731.42857   0.74785156 
   57950        115.9    1.3864831     1.946409   -4.4966565   -2.5502475    2.6016227    731.42857   0.74648438 
   58000          116     1.426804     1.995703   -4.5318815   -2.5361785    2.6157205    731.42857   0.74921875 
   58050        116.1    1.4113572    1.9740973   -4.5150395   -2.5409423    2.6859653    731.42857   0.74921875 
   58100        116.2    1.4109193    1.9663084    -4.499282   -2.5329736    2.8584539    731.42857   0.75195313 
   58150        116.3       1.4079    1.9728617   -4.5380218   -2.5651601    2.6018269    731.42857   0.74785156 
   58200        116.4    1.4605135    2.0428532   -4.5160813    -2.473228    2.7547791    731.42857   0.74921875 
   58250        116.5    1.5075082    2.1124407   -4.5400996    -2.427659    2.5613939    731.42857   0.74785156 
   58300        116.6    1.4761614    2.0723034   -4.5174902   -2.4451867    2.5706707    731.42857   0.74648438 
   58350        116.7    1.4457477    2.0333314   -4.5347901   -2.5014587    2.4482781    731.42857   0.74511719 
   58400        116.8    1.4393567    2.0317991    -4.512718   -2.4809189    2.5363896    731.42857   0.74238281 
   58450        116.9    1.4474906    2.0395248   -4.5238635   -2.4843386    2.5671021    731.42857      0.74375 
   58500          117    1.4295712    2.0032291   -4.5293966   -2.5261675    2.6175864    731.42857   0.74785156 
   58550        117.1    1.4388749    2.0273853   -4.5366442   -2.5092589    2.4256715    731.42857      0.74375 
   58600        117.2    1.4287184     2.009381   -4.5627109   -2.5533299    2.3278639    731.42857   0.74511719 
   58650        117.3    1.4109233     1.995337   -4.5585205   -2.5631835    2.2595086    731.42857   0.74101563 
   58700        117.4    1.4042051    1.9821791   -4.5301123   -2.5479332    2.4254132    731.42857   0.74238281 
   58750        117.5    1.4441975    2.0348849   -4.5233723   -2.4884874    2.4771162    731.42857      0.74375 
   58800        117.6    1.4467984    2.0385496   -4.5062178   -2.4676682    2.5497153    731.42857      0.74375 
   58850        117.7    1.4433863    2.0262923   -4.4456234   -2.4193311    2.9512438    731.42857   0.74648438 
   58900        117.8    1.4750326    2.0745183   -4.4750574   -2.4005391    2.8116939    731.42857   0.74511719 
   58950        117.9    1.4643042    2.0708287   -4.5162811   -2.4454524    2.5163935    731.42857   0.74101563 
   59000          118    1.4532747    2.0514458   -4.4572937   -2.4058479    2.7654513    731.42857   0.74238281 
   59050        118.1    1.4653503    2.0761387   -4.4832723   -2.4071337    2.5837237    731.42857   0.73964844 
   59100        118.2    1.4372526    2.0288289   -4.4701758   -2.4413469    2.6967431    731.42857   0.74238281 
   59150        118.3    1.4349895    2.0256343   -4.4780657   -2.4524314    2.6437362    731.42857   0.74238281 
   59200        118.4    1.4324844    2.0220981   -4.4675186   -2.4454206    2.6963632    731.42857   0.74238281 
   59250        118.5    1.4697965     2.070954   -4.4884154   -2.4174613    2.6539031    731.42857      0.74375 
   59300        118.6    1.4613744    2.0590872   -4.4629281   -2.4038409    2.7615088    731.42857      0.74375 
   59350        118.7    1.4680433    2.0722932   -4.4712023   -2.3989091    2.7542835    731.42857   0.74238281 
   59400        118.8    1.4602325    2.0537031   -4.4621842    -2.408481    2.9110428    731.42857   0.74511719 
   59450        118.9    1.4406196    2.0298436   -4.4516155   -2.4217719      2.88272    731.42857      0.74375 
   59500          119    1.4688193    2.0657798   -4.5068728    -2.441093    2.6754134    731.42857   0.74511719 
   59550        119.1    1.4488906    2.0452571   -4.4947159   -2.4494588     2.628983    731.42857   0.74238281 
   59600        119.2    1.4290306    2.0135146   -4.4448817   -2.4313671     2.911215    731.42857      0.74375 
   59650        119.3    1.4582199    2.0546426   -4.4710887   -2.4164461    2.8091734    731.42857      0.74375 
   59700        119.4    1.4371891    2.0362393   -4.4611009   -2.4248616    2.6727394    731.42857   0.73964844 
   59750        119.5    1.4111441    2.0030407   -4.3891987    -2.386158     2.864623    731.42857   0.73828125 
   59800        119.6    1.4537915    2.0712476   -4.4513093   -2.3800617    2.6106275    731.42857   0.73554688 
   59850        119.7    1.4380022    2.0411642    -4.420364   -2.3791997    2.8346653    731.42857   0.73828125 
   59900        119.8    1.4396185     2.035918    -4.411781    -2.375863    2.9595861    731.42857   0.74101563 
   59950        119.9    1.4551651    2.0655261   -4.4163984   -2.3508723    2.8819446    731.42857   0.73828125 
   60000          120     1.449025    2.0644566    -4.440011   -2.3755544    2.6864598    731.42857   0.73554688
