
variable        mcmoves equal f_montecarlo[1]
variable        mcaccratio equal f_montecarlo[2]/(f_montecarlo[1]+1e-10)

thermo_style	custom step temp etotal press c_p_all v_mcmoves v_mcaccratio

thermo	200

run		${prodlength}
run		30000
WARNING: Fix gcmc is being applied to the default group all (../fix_gcmc.cpp:663)
Per MPI rank memory allocation (min/avg/max) = 2.636 | 2.636 | 2.636 Mbytes
Step Temp TotEng Press c_p_all v_mcmoves v_mcaccratio 
       0   0.97550408   -4.1119032    2.4855021    1.6685697            0            0 
     200   0.97550408    -4.205175    1.8986217    1.0816893        25000         0.56 
     400   0.97550408   -4.1611389    2.0458929    1.2289605        50000      0.56164 
     600   0.97550408   -4.2319777    1.8557469    1.0388145        75000   0.56297333 
     800   0.97550408   -4.1874994    2.0914535    1.2745211       100000      0.56304 
    1000   0.97550408   -4.0852738    2.5070776    1.6901453       125000     0.561536 
    1200   0.97550408   -4.1616013    2.2208267    1.4038943       150000      0.55788 
    1400   0.97550408   -4.2954844    1.5586772   0.74174477       175000      0.55804 
    1600   0.97550408   -4.2887612    1.6911114   0.87417903       200000     0.557705 
    1800   0.97550408   -4.0277049    2.6796244     1.862692       225000   0.55704444 
    2000   0.97550408   -4.1575143    2.1925109    1.3755785       250000     0.556228 
    2200   0.97550408   -4.2538317    1.7654223   0.94848995       275000   0.55611273 
    2400   0.97550408   -4.3286875    1.5000358   0.68310337       300000   0.55615333 
    2600   0.97550408   -4.1765551    2.1862539    1.3693215       325000   0.55607077 
    2800   0.97550408   -4.2388952     1.959466    1.1425336       350000   0.55599143 
    3000   0.97550408   -4.1423661    2.5283378    1.7114054       375000     0.556096 
    3200   0.97550408   -4.1294023    2.4593812    1.6424488       400000      0.55567 
    3400   0.97550408   -4.2570144    1.7609549   0.94402256       425000   0.55575529 
    3600   0.97550408   -4.1682666    2.1601625    1.3432301       450000   0.55591556 
    3800   0.97550408   -4.0119214    2.7471234    1.9301911       475000   0.55577684 
    4000   0.97550408   -4.2456023    1.9077874     1.090855       500000     0.555826 
    4200   0.97550408   -4.3460163    1.2697588   0.45282639       525000   0.55571238 
    4400   0.97550408   -4.2476635    1.9837202    1.1667878       550000   0.55567273 
    4600   0.97550408   -4.2793987    1.8093467    0.9924143       575000   0.55534435 
    4800   0.97550408    -4.212305    1.8513352    1.0344028       600000   0.55524167 
    5000   0.97550408   -4.2734981     1.665516   0.84858363       625000     0.555408 
    5200   0.97550408   -4.1684252     2.177614    1.3606817       650000   0.55543846 
    5400   0.97550408   -4.0011078    3.0499388    2.2330064       675000   0.55503259 
    5600   0.97550408   -4.0962323    2.2844277    1.4674953       700000   0.55507571 
    5800   0.97550408   -4.2007148    1.8654232    1.0484908       725000      0.55544 
    6000   0.97550408   -4.2373491     1.830379    1.0134466       750000      0.55558 
    6200   0.97550408   -4.3221417    1.4100511   0.59311875       775000   0.55557032 
    6400   0.97550408   -4.1399644    2.4034073    1.5864749       800000    0.5557325 
    6600   0.97550408   -4.1706563     2.237766    1.4208336       825000   0.55577333 
    6800   0.97550408   -4.1174568    2.0911764     1.274244       850000   0.55615765 
    7000   0.97550408    -4.284333    1.7230194   0.90608705       875000   0.55627771 
    7200   0.97550408   -4.2282568    1.8668074     1.049875       900000   0.55634667 
    7400   0.97550408   -4.2505642    1.6821284   0.86519603       925000   0.55632649 
    7600   0.97550408   -4.3137904    1.5784242    0.7614918       950000   0.55642947 
    7800   0.97550408   -4.1869306    2.0710321    1.2540997       975000   0.55642667 
    8000   0.97550408   -4.2604527    1.6898776    0.8729452      1000000     0.556502 
    8200   0.97550408   -4.2293189    1.7081264   0.89119406      1025000    0.5565639 
    8400   0.97550408   -4.0837263    2.4804775    1.6635451      1050000   0.55656381 
    8600   0.97550408   -4.0706361    2.6463063    1.8293739      1075000   0.55648186 
    8800   0.97550408   -4.0889561    2.4291664     1.612234      1100000   0.55631818 
    9000   0.97550408   -4.1845429     2.182393    1.3654606      1125000   0.55616622 
    9200   0.97550408   -4.2587997    2.1008231    1.2838907      1150000      0.55624 
    9400   0.97550408    -4.218927    2.0849551    1.2680227      1175000   0.55624681 
    9600   0.97550408    -4.151627    2.1547716    1.3378393      1200000   0.55644917 
    9800   0.97550408   -4.0275348    2.8274851    2.0105527      1225000   0.55659673 
   10000   0.97550408    -4.341133    1.3639266   0.54699419      1250000     0.556544 
   10200   0.97550408   -3.9544997    3.0421618    2.2252294      1275000   0.55652706 
   10400   0.97550408   -4.0645702    2.5061933    1.6892609      1300000      0.55624 
   10600   0.97550408   -4.1202209    2.2471581    1.4302257      1325000   0.55622717 
   10800   0.97550408   -4.0737486     2.519742    1.7028096      1350000   0.55613111 
   11000   0.97550408   -4.0810519     2.727281    1.9103486      1375000   0.55605164 
   11200   0.97550408   -4.1143996    2.4379964     1.621064      1400000   0.55603214 
   11400   0.97550408   -4.1516417    2.2098705    1.3929381      1425000   0.55596842 
   11600   0.97550408   -4.2250005    1.8526266    1.0356943      1450000   0.55602414 
   11800   0.97550408   -4.2910141    1.5761367   0.75920432      1475000   0.55608203 
   12000   0.97550408   -4.3399457    1.2349259   0.41799355      1500000   0.55617733 
   12200   0.97550408   -4.0323077    2.7008562    1.8839239      1525000   0.55623672 
   12400   0.97550408   -4.1647454    2.1417011    1.3247687      1550000    0.5563529 
   12600   0.97550408   -4.1264548    2.4896592    1.6727269      1575000   0.55642603 
   12800   0.97550408   -4.1310807    2.5119166    1.6949842      1600000   0.55631375 
   13000   0.97550408   -4.0673528    2.7929908    1.9760585      1625000   0.55637231 
   13200   0.97550408    -4.190818    1.9464729    1.1295405      1650000   0.55646667 
   13400   0.97550408   -4.1310636    2.4945403     1.677608      1675000   0.55644955 
   13600   0.97550408     -4.11581    2.3866093    1.5696769      1700000   0.55639647 
   13800   0.97550408   -4.1084828    2.4200783    1.6031459      1725000   0.55645043 
   14000   0.97550408   -4.2039973    1.8102544   0.99332198      1750000   0.55658971 
   14200   0.97550408   -4.2287472    1.8546841    1.0377517      1775000   0.55667944 
   14400   0.97550408   -4.2211226    1.8280891    1.0111567      1800000   0.55676056 
   14600   0.97550408   -4.1870197    1.9996565    1.1827241      1825000   0.55676658 
   14800   0.97550408   -4.0119744    3.1534763    2.3365439      1850000   0.55676378 
   15000   0.97550408   -4.1145818    2.4766294     1.659697      1875000     0.556776 
   15200   0.97550408      -4.2257    1.7816815   0.96474909      1900000   0.55681211 
   15400   0.97550408   -4.0953585      2.24615    1.4292176      1925000    0.5568587 
   15600   0.97550408   -4.2276099    1.9195736    1.1026412      1950000   0.55686564 
   15800   0.97550408   -4.1098815    2.3287282    1.5117958      1975000   0.55689975 
   16000   0.97550408   -4.2354558    1.7911018   0.97416945      2000000     0.556963 
   16200   0.97550408   -4.0063017    2.9225345    2.1056021      2025000   0.55696691 
   16400   0.97550408   -4.2523074    1.7379234   0.92099105      2050000   0.55697268 
   16600   0.97550408   -3.9529142    3.1230249    2.3060925      2075000   0.55695807 
   16800   0.97550408   -3.9522118    2.9449751    2.1280427      2100000      0.55686 
   17000   0.97550408   -4.2663132    1.9068128    1.0898804      2125000   0.55684047 
   17200   0.97550408   -3.9755477     3.120745    2.3038126      2150000    0.5568107 
   17400   0.97550408   -4.2490522    1.8791465    1.0622141      2175000   0.55677655 
   17600   0.97550408   -4.1196845    2.4940031    1.6770707      2200000   0.55671091 
   17800   0.97550408   -4.2386933    1.8538369    1.0369046      2225000   0.55665348 
   18000   0.97550408   -3.9982751    3.0196746    2.2027422      2250000   0.55662267 
   18200   0.97550408   -3.9955589    3.0229691    2.2060367      2275000   0.55650154 
   18400   0.97550408   -4.1838069    2.1637716    1.3468392      2300000   0.55645913 
   18600   0.97550408   -4.2013212    1.9370669    1.1201346      2325000   0.55642968 
   18800   0.97550408   -4.1936873    1.8737277    1.0567953      2350000   0.55640681 
   19000   0.97550408   -4.1805658    2.2348906    1.4179582      2375000   0.55646189 
   19200   0.97550408   -4.1413599    2.1496427    1.3327103      2400000   0.55652083 
   19400   0.97550408   -4.2311498    1.7561217   0.93918934      2425000   0.55648907 
   19600   0.97550408   -4.1868423    2.0168104     1.199878      2450000   0.55647673 
   19800   0.97550408   -4.1281627    2.5175807    1.7006483      2475000   0.55635838 
   20000   0.97550408   -4.2385449    1.7740375   0.95710508      2500000    0.5562872 
   20200   0.97550408   -4.1684835    2.1494488    1.3325165      2525000   0.55625386 
   20400   0.97550408   -4.2273612    1.9501459    1.1332135      2550000   0.55623255 
   20600   0.97550408   -4.3339791    1.3424379   0.52550548      2575000   0.55614641 
   20800   0.97550408   -4.2946734    1.5006371    0.6837047      2600000   0.55613923 
   21000   0.97550408   -4.2270147     1.984512    1.1675796      2625000   0.55627314 
   21200   0.97550408   -4.2058993    1.9096366    1.0927042      2650000   0.55629396 
   21400   0.97550408   -4.1623669    2.3100508    1.4931185      2675000   0.55627626 
   21600   0.97550408   -4.2781933    1.5953393   0.77840689      2700000   0.55634741 
   21800   0.97550408   -4.0471209     2.953287    2.1363546      2725000   0.55627927 
   22000   0.97550408   -4.0151223     2.871928    2.0549956      2750000   0.55622909 
   22200   0.97550408    -4.145553    2.0949473    1.2780149      2775000   0.55631207 
   22400   0.97550408   -4.0808039    2.7496557    1.9327233      2800000      0.55634 
   22600   0.97550408    -4.217969    1.9930258    1.1760934      2825000   0.55632566 
   22800   0.97550408   -4.2920851    1.5183258   0.70139341      2850000   0.55632421 
   23000   0.97550408    -4.275723    1.6744172   0.85748485      2875000   0.55631026 
   23200   0.97550408   -4.2525244    1.9866834     1.169751      2900000   0.55631241 
   23400   0.97550408   -4.1576964    2.4746988    1.6577664      2925000   0.55630427 
   23600   0.97550408   -4.1753012    2.1702328    1.3533004      2950000   0.55628542 
   23800   0.97550408   -4.1732775    2.1201746    1.3032422      2975000   0.55631092 
   24000   0.97550408   -4.0173186    2.7831405    1.9662082      3000000   0.55622433 
   24200   0.97550408   -4.2696325    1.5843102   0.76737784      3025000   0.55616463 
   24400   0.97550408   -4.1185405    2.3692953    1.5523629      3050000   0.55617738 
   24600   0.97550408   -4.3425836    1.4060432   0.58911081      3075000   0.55619805 
   24800   0.97550408   -4.0598166    2.6868502    1.8699178      3100000   0.55619516 
   25000   0.97550408   -4.3192929     1.347494   0.53056157      3125000   0.55618688 
   25200   0.97550408   -4.2386849    1.8675271    1.0505947      3150000   0.55619587 
   25400   0.97550408    -4.282216    1.7153303   0.89839791      3175000   0.55624661 
   25600   0.97550408   -4.1562627    2.1168972    1.2999648      3200000   0.55622406 
   25800   0.97550408   -4.2323163    1.8373096    1.0203773      3225000   0.55621147 
   26000   0.97550408    -4.234567    1.7733592   0.95642685      3250000   0.55622308 
   26200   0.97550408   -3.9546209    3.3973392    2.5804068      3275000   0.55611695 
   26400   0.97550408   -4.0989209    2.5526823      1.73575      3300000   0.55606515 
   26600   0.97550408   -4.1861169    2.0189076    1.2019752      3325000    0.5560812 
   26800   0.97550408   -4.1278391    2.3847137    1.5677814      3350000   0.55609075 
   27000   0.97550408    -4.228532    1.8787087    1.0617764      3375000   0.55611378 
   27200   0.97550408   -4.2117075    1.9107502    1.0938178      3400000   0.55613559 
   27400   0.97550408   -4.3305297    1.5397155   0.72278314      3425000   0.55617927 
   27600   0.97550408   -4.1804675    2.1485114     1.331579      3450000   0.55619594 
   27800   0.97550408   -4.1420534    2.2884221    1.4714897      3475000   0.55622072 
   28000   0.97550408   -4.1667347    2.1698786    1.3529462      3500000   0.55624629 
   28200   0.97550408   -4.1908674    2.1630493     1.346117      3525000    0.5562695 
   28400   0.97550408   -4.0436005    2.8430414     2.026109      3550000   0.55625549 
   28600   0.97550408   -4.2062287    2.3173343    1.5004019      3575000   0.55623357 
   28800   0.97550408   -4.2423429    1.8290966    1.0121642      3600000   0.55624167 
   29000   0.97550408    -4.188315    2.0496845    1.2327521      3625000   0.55623448 
   29200   0.97550408   -4.0647988    2.6341517    1.8172193      3650000   0.55620767 
   29400   0.97550408   -4.1641217    2.2160417    1.3991093      3675000   0.55623265 
   29600   0.97550408   -4.2620284    1.6563026   0.83937022      3700000   0.55621973 
   29800   0.97550408    -4.037605    2.8831217    2.0661893      3725000   0.55622846 
   30000   0.97550408   -4.1884074    2.2361878    1.4192554      3750000   0.55624187 
Loop time of 290.095 on 1 procs for 30000 steps with 125 atoms

Performance: 44675.004 tau/day, 103.414 timesteps/s
99.6% CPU use with 1 MPI tasks x no OpenMP threads

MPI task timing breakdown:
Section |  min time  |  avg time  |  max time  |%varavg| %total
---------------------------------------------------------------
Pair    | 12.144     | 12.144     | 12.144     |   0.0 |  4.19
Neigh   | 25.838     | 25.838     | 25.838     |   0.0 |  8.91
Comm    | 1.663      | 1.663      | 1.663      |   0.0 |  0.57
Output  | 0.0076967  | 0.0076967  | 0.0076967  |   0.0 |  0.00
Modify  | 250.14     | 250.14     | 250.14     |   0.0 | 86.23
Other   |            | 0.3026     |            |       |  0.10

Nlocal:        125.000 ave         125 max         125 min
Histogram: 1 0 0 0 0 0 0 0 0 0
Nghost:        1684.00 ave        1684 max        1684 min
Histogram: 1 0 0 0 0 0 0 0 0 0
Neighs:        12056.0 ave       12056 max       12056 min
Histogram: 1 0 0 0 0 0 0 0 0 0

Total # of neighbors = 12056
Ave neighs/atom = 96.448000
Neighbor list builds = 30000
Dangerous builds not checked

variable	p equal f_ave_p

print	"Average virial pressure from MC: $p"
Average virial pressure from MC: 1.32704614183374
Total wall time: 0:06:00
