
variable        mcmoves equal f_montecarlo[1]
variable        mcaccratio equal f_montecarlo[2]/(f_montecarlo[1]+1e-10)

thermo_style	custom step temp etotal press c_p_all v_mcmoves v_mcaccratio

thermo	200

run		${prodlength}
run		20000
WARNING: Fix gcmc is being applied to the default group all (../fix_gcmc.cpp:663)
Per MPI rank memory allocation (min/avg/max) = 2.636 | 2.636 | 2.636 Mbytes
Step Temp TotEng Press c_p_all v_mcmoves v_mcaccratio 
       0    4.7226685    4.0070064    16.843986    12.889004            0            0 
     200    4.7226685    4.1163283     17.41874    13.463758        25000       0.6932 
     400    4.7226685    4.3622389    18.167508    14.212526        50000      0.69454 
     600    4.7226685    3.8520743    16.134507    12.179525        75000      0.69488 
     800    4.7226685    4.0892243    16.963917    13.008935       100000      0.69322 
    1000    4.7226685    4.0493317    17.249361     13.29438       125000     0.691592 
    1200    4.7226685    4.0534072    17.008111    13.053129       150000   0.68961333 
    1400    4.7226685    3.8817743    16.168781      12.2138       175000   0.69012571 
    1600    4.7226685    4.2079108    17.608941     13.65396       200000     0.690855 
    1800    4.7226685    4.1834552    17.503669    13.548687       225000   0.69017333 
    2000    4.7226685     3.393592    14.170356    10.215374       250000     0.690704 
    2200    4.7226685    4.3959981    18.832748    14.877767       275000   0.69069091 
    2400    4.7226685    3.3834709    14.420297    10.465315       300000   0.69181667 
    2600    4.7226685    3.5036249    14.744454    10.789473       325000   0.69194462 
    2800    4.7226685    4.2065595    17.513385    13.558403       350000      0.69158 
    3000    4.7226685    4.2202691    17.794454    13.839472       375000     0.691656 
    3200    4.7226685    3.5613387    15.112275    11.157293       400000     0.691435 
    3400    4.7226685    3.8734174    16.162346    12.207364       425000   0.69146353 
    3600    4.7226685    3.6340238    15.177517    11.222535       450000   0.69094444 
    3800    4.7226685    4.3292611    18.249343    14.294361       475000   0.69067789 
    4000    4.7226685    4.7038981    19.609134    15.654152       500000     0.690174 
    4200    4.7226685    3.9730914    16.446835    12.491854       525000   0.68996952 
    4400    4.7226685    3.9350725    16.513876    12.558894       550000   0.68989273 
    4600    4.7226685    4.1205949    17.391083    13.436101       575000   0.68950609 
    4800    4.7226685    4.1416438    16.986496    13.031514       600000   0.68944333 
    5000    4.7226685    3.8420467    15.939265    11.984283       625000     0.689592 
    5200    4.7226685    3.3574159    13.977858    10.022877       650000   0.68992462 
    5400    4.7226685     4.314981    18.210682      14.2557       675000   0.68993185 
    5600    4.7226685    3.9402211    16.453984    12.499002       700000   0.68987143 
    5800    4.7226685    3.6121197    14.739052     10.78407       725000   0.69021793 
    6000    4.7226685    4.0842355    16.895184    12.940202       750000     0.690512 
    6200    4.7226685     4.007897    16.812759    12.857777       775000   0.69055613 
    6400    4.7226685    3.8554376    16.503817    12.548836       800000   0.69045125 
    6600    4.7226685    4.0423577    16.874468    12.919487       825000   0.69050182 
    6800    4.7226685    3.7380293    15.265396    11.310414       850000   0.69080941 
    7000    4.7226685    3.8467165    16.023122     12.06814       875000   0.69088114 
    7200    4.7226685    3.3003549    13.901038    9.9460562       900000   0.69109556 
    7400    4.7226685    3.9030723    16.432139    12.477158       925000   0.69105838 
    7600    4.7226685    3.8780782    16.189964    12.234982       950000   0.69108632 
    7800    4.7226685     3.427432    14.585386    10.630405       975000   0.69124308 
    8000    4.7226685    4.1775042    17.539108    13.584127      1000000     0.691125 
    8200    4.7226685    3.9278597    16.490888    12.535906      1025000   0.69103902 
    8400    4.7226685    3.9735331    16.413477    12.458495      1050000        0.691 
    8600    4.7226685    4.2011694    17.673341    13.718359      1075000   0.69101395 
    8800    4.7226685    4.1875308    17.683613    13.728631      1100000   0.69099273 
    9000    4.7226685    3.9466658    16.354109    12.399127      1125000   0.69096889 
    9200    4.7226685    4.2756493    17.856347    13.901366      1150000   0.69120696 
    9400    4.7226685    4.3793678     18.68672    14.731738      1175000   0.69112426 
    9600    4.7226685    4.3055584    17.809936    13.854954      1200000   0.69121667 
    9800    4.7226685    3.7836529    15.630144    11.675162      1225000   0.69138286 
   10000    4.7226685    3.7874609    15.985861    12.030879      1250000    0.6915344 
   10200    4.7226685     4.389105    18.250797    14.295816      1275000   0.69144941 
   10400    4.7226685     4.220705    17.565997    13.611015      1300000   0.69146692 
   10600    4.7226685    4.3146569    18.479046    14.524065      1325000   0.69150943 
   10800    4.7226685    4.6041548    19.297838    15.342857      1350000   0.69152074 
   11000    4.7226685    4.2775097    17.749381    13.794399      1375000   0.69132873 
   11200    4.7226685    3.4559016    14.280174    10.325192      1400000   0.69129929 
   11400    4.7226685    3.7191094    15.603889    11.648907      1425000   0.69138175 
   11600    4.7226685     4.154839    17.261175    13.306193      1450000   0.69137724 
   11800    4.7226685     4.583536     19.07312    15.118138      1475000   0.69130305 
   12000    4.7226685    4.0274434    16.977267    13.022286      1500000     0.691322 
   12200    4.7226685    4.5042539    19.122281    15.167299      1525000   0.69140262 
   12400    4.7226685    4.1820779    17.466976    13.511994      1550000   0.69140839 
   12600    4.7226685    4.0045456     16.87042    12.915439      1575000   0.69138413 
   12800    4.7226685    4.2867705    18.044237    14.089255      1600000    0.6914025 
   13000    4.7226685    4.1509057    17.759103    13.804121      1625000   0.69138769 
   13200    4.7226685    3.5522028    14.707748    10.752766      1650000   0.69151455 
   13400    4.7226685    3.8330678    16.080601     12.12562      1675000   0.69148119 
   13600    4.7226685    3.8480449    15.989704    12.034722      1700000   0.69143471 
   13800    4.7226685    3.8532214     16.01129    12.056308      1725000   0.69150957 
   14000    4.7226685    3.5956567    15.176013    11.221031      1750000   0.69153371 
   14200    4.7226685    3.6582575    15.253091    11.298109      1775000   0.69145296 
   14400    4.7226685    4.5640809    19.094904    15.139922      1800000   0.69149056 
   14600    4.7226685    4.4923435    19.181348    15.226366      1825000   0.69146247 
   14800    4.7226685    4.4349219    18.812728    14.857747      1850000   0.69143892 
   15000    4.7226685    4.8209453    20.344886    16.389904      1875000    0.6913824 
   15200    4.7226685    3.4877857    14.590013    10.635031      1900000   0.69144579 
   15400    4.7226685    4.3060942    18.029469    14.074488      1925000   0.69145247 
   15600    4.7226685    4.1071335    17.094634    13.139653      1950000   0.69150821 
   15800    4.7226685    3.7602769    15.840923    11.885941      1975000   0.69150937 
   16000    4.7226685    3.4425088    14.457523    10.502541      2000000    0.6915155 
   16200    4.7226685    4.8203878    20.397436    16.442454      2025000   0.69143062 
   16400    4.7226685    3.9183547    16.495483    12.540501      2050000    0.6914039 
   16600    4.7226685    4.1146678    17.900188    13.945206      2075000    0.6914347 
   16800    4.7226685    4.4582289    18.451234    14.496252      2100000   0.69135143 
   17000    4.7226685     3.450547    14.268494    10.313512      2125000   0.69144565 
   17200    4.7226685    3.9277465     16.62789    12.672909      2150000   0.69144326 
   17400    4.7226685    3.9343768     16.62674    12.671758      2175000   0.69141517 
   17600    4.7226685    3.8183892     16.00329    12.048308      2200000   0.69144318 
   17800    4.7226685    3.9415725    16.736153    12.781172      2225000   0.69145978 
   18000    4.7226685    3.9201281     16.33646    12.381479      2250000   0.69141911 
   18200    4.7226685    4.6834914    19.546323    15.591341      2275000   0.69133319 
   18400    4.7226685     4.014827    16.776918    12.821936      2300000   0.69133478 
   18600    4.7226685    4.1121578    17.245138    13.290157      2325000   0.69133032 
   18800    4.7226685    4.2165699    17.631931     13.67695      2350000   0.69133149 
   19000    4.7226685    4.3509256    18.197626    14.242644      2375000   0.69134695 
   19200    4.7226685    3.8661292    16.162683    12.207701      2400000   0.69136125 
   19400    4.7226685    4.0107428    16.853927    12.898945      2425000   0.69130227 
   19600    4.7226685    3.8397654    15.994699    12.039717      2450000   0.69125143 
   19800    4.7226685    5.0695297    21.169699    17.214717      2475000   0.69124162 
   20000    4.7226685    4.2242228    17.649506    13.694525      2500000    0.6912452 
Loop time of 210.888 on 1 procs for 20000 steps with 125 atoms

Performance: 40969.626 tau/day, 94.837 timesteps/s
99.6% CPU use with 1 MPI tasks x no OpenMP threads

MPI task timing breakdown:
Section |  min time  |  avg time  |  max time  |%varavg| %total
---------------------------------------------------------------
Pair    | 8.2473     | 8.2473     | 8.2473     |   0.0 |  3.91
Neigh   | 17.484     | 17.484     | 17.484     |   0.0 |  8.29
Comm    | 1.113      | 1.113      | 1.113      |   0.0 |  0.53
Output  | 0.0051368  | 0.0051368  | 0.0051368  |   0.0 |  0.00
Modify  | 183.83     | 183.83     | 183.83     |   0.0 | 87.17
Other   |            | 0.2048     |            |       |  0.10

Nlocal:        125.000 ave         125 max         125 min
Histogram: 1 0 0 0 0 0 0 0 0 0
Nghost:        1664.00 ave        1664 max        1664 min
Histogram: 1 0 0 0 0 0 0 0 0 0
Neighs:        12067.0 ave       12067 max       12067 min
Histogram: 1 0 0 0 0 0 0 0 0 0

Total # of neighbors = 12067
Ave neighs/atom = 96.536000
Neighbor list builds = 20000
Dangerous builds not checked

variable	p equal f_ave_p

print	"Average virial pressure from MC: $p"
Average virial pressure from MC: 12.8828245498418
Total wall time: 0:04:26
