
variable        mcmoves equal f_montecarlo[1]
variable        mcaccratio equal f_montecarlo[2]/(f_montecarlo[1]+1e-10)

thermo_style	custom step temp etotal press c_p_all v_mcmoves v_mcaccratio

thermo	200

run		${prodlength}
run		50000
WARNING: Fix gcmc is being applied to the default group all (../fix_gcmc.cpp:663)
Per MPI rank memory allocation (min/avg/max) = 2.636 | 2.636 | 2.636 Mbytes
Step Temp TotEng Press c_p_all v_mcmoves v_mcaccratio 
       0   0.85182844   -4.3762584    1.9078312    1.1944706            0            0 
     200   0.85182844   -4.3471191    2.1537998    1.4404392        25000      0.55644 
     400   0.85182844   -4.2197206    2.8354546     2.122094        50000      0.55758 
     600   0.85182844    -4.367306     1.891415    1.1780543        75000   0.55733333 
     800   0.85182844   -4.4072225    1.9336447    1.2202841       100000      0.55681 
    1000   0.85182844   -4.2336891    2.5639681    1.8506075       125000       0.5576 
    1200   0.85182844    -4.444964     1.780496    1.0671353       150000      0.55536 
    1400   0.85182844   -4.4854851    1.2751288   0.56176811       175000   0.55590857 
    1600   0.85182844   -4.4457909    1.6148903   0.90152967       200000      0.55624 
    1800   0.85182844   -4.3065033    2.2514181    1.5380574       225000   0.55635111 
    2000   0.85182844   -4.5267727    1.1579833   0.44462264       250000     0.556604 
    2200   0.85182844   -4.2894455     2.486108    1.7727473       275000   0.55679273 
    2400   0.85182844   -4.4429289    1.4937124    0.7803517       300000   0.55732333 
    2600   0.85182844   -4.4048006    1.8635283    1.1501676       325000   0.55691385 
    2800   0.85182844   -4.3308125    2.1399259    1.4265652       350000   0.55668571 
    3000   0.85182844   -4.3523365    1.8986831    1.1853224       375000     0.556544 
    3200   0.85182844   -4.3979753    1.9398343    1.2264736       400000      0.55625 
    3400   0.85182844   -4.3339464    2.0475491    1.3341884       425000   0.55607529 
    3600   0.85182844   -4.3843474    2.0803434    1.3669828       450000   0.55609333 
    3800   0.85182844   -4.2404859    2.8572819    2.1439212       475000   0.55575789 
    4000   0.85182844   -4.3361851    2.2310822    1.5177216       500000       0.5555 
    4200   0.85182844   -4.3344795    2.1402567    1.4268961       525000   0.55536571 
    4400   0.85182844   -4.4128703     1.590554   0.87719337       550000      0.55532 
    4600   0.85182844   -4.5279018    1.1460372   0.43267658       575000   0.55522783 
    4800   0.85182844   -4.3636492    1.7635262    1.0501655       600000   0.55509167 
    5000   0.85182844   -4.2325158     2.510476    1.7971153       625000    0.5552752 
    5200   0.85182844    -4.400597    1.9176132    1.2042525       650000   0.55549846 
    5400   0.85182844   -4.3683774    2.2176066     1.504246       675000   0.55564296 
    5600   0.85182844   -4.5166891    1.3338728   0.62051212       700000   0.55557714 
    5800   0.85182844    -4.378161    1.8770832    1.1637225       725000   0.55561241 
    6000   0.85182844    -4.371291     1.992899    1.2795384       750000   0.55572533 
    6200   0.85182844    -4.309156    2.1813336     1.467973       775000   0.55580903 
    6400   0.85182844   -4.4583384    1.5436209   0.83026025       800000   0.55598625 
    6600   0.85182844   -4.3939942     1.847243    1.1338823       825000   0.55602788 
    6800   0.85182844   -4.2769723    2.3341612    1.6208005       850000   0.55635529 
    7000   0.85182844   -4.4339866    1.6396247   0.92626408       875000   0.55643657 
    7200   0.85182844   -4.5102304    1.3276964   0.61433571       900000      0.55673 
    7400   0.85182844     -4.39672    1.7754462    1.0620855       925000   0.55663135 
    7600   0.85182844   -4.4088739    1.5048676   0.79150698       950000   0.55658211 
    7800   0.85182844   -4.3935984    1.7875345    1.0741739       975000   0.55665846 
    8000   0.85182844   -4.2993067    2.4695866    1.7562259      1000000     0.556722 
    8200   0.85182844   -4.3927437     1.774447    1.0610863      1025000   0.55678829 
    8400   0.85182844   -4.0864306     3.424971    2.7116103      1050000   0.55685143 
    8600   0.85182844    -4.212202    2.7215006    2.0081399      1075000   0.55682047 
    8800   0.85182844   -4.2464987    2.5235716    1.8102109      1100000   0.55683727 
    9000   0.85182844   -4.3608044    1.9436084    1.2302477      1125000   0.55683111 
    9200   0.85182844   -4.3824108    1.9058212    1.1924605      1150000   0.55689217 
    9400   0.85182844   -4.2845991    2.5288634    1.8155028      1175000   0.55685021 
    9600   0.85182844   -4.2244016     2.928653    2.2152924      1200000    0.5565825 
    9800   0.85182844   -4.4667215    1.6742928   0.96093219      1225000       0.5566 
   10000   0.85182844   -4.2401786    2.4931775    1.7798168      1250000    0.5566368 
   10200   0.85182844    -4.077764    3.5464383    2.8330777      1275000   0.55651686 
   10400   0.85182844   -4.1731745    2.9446437    2.2312831      1300000   0.55631615 
   10600   0.85182844   -4.3732877    1.9331211    1.2197605      1325000   0.55626189 
   10800   0.85182844   -4.2539237    2.3767941    1.6634334      1350000    0.5562837 
   11000   0.85182844   -4.3915292    1.7823139    1.0689533      1375000   0.55610473 
   11200   0.85182844    -4.374737    1.9182882    1.2049276      1400000   0.55601571 
   11400   0.85182844   -4.3503492    2.2142968    1.5009361      1425000   0.55591649 
   11600   0.85182844    -4.279239    2.7391099    2.0257492      1450000   0.55568483 
   11800   0.85182844   -4.3437206     2.140953    1.4275924      1475000   0.55559593 
   12000   0.85182844   -4.3311232    2.1926415    1.4792809      1500000   0.55569733 
   12200   0.85182844   -4.2725758    2.4376938    1.7243332      1525000    0.5556577 
   12400   0.85182844   -4.4385742    1.5710637   0.85770301      1550000   0.55564516 
   12600   0.85182844    -4.473091    1.4404342   0.72707356      1575000   0.55574413 
   12800   0.85182844   -4.4287283      1.72125    1.0078893      1600000     0.555755 
   13000   0.85182844   -4.1769894     2.763449    2.0500883      1625000   0.55565538 
   13200   0.85182844   -4.4210949    1.7515541    1.0381934      1650000   0.55567939 
   13400   0.85182844   -4.4255919    1.9027517    1.1893911      1675000   0.55557791 
   13600   0.85182844   -4.3536083    2.0535362    1.3401755      1700000      0.55565 
   13800   0.85182844   -4.2634711    2.5967894    1.8834287      1725000   0.55575594 
   14000   0.85182844   -4.3469084    2.1785162    1.4651555      1750000     0.555828 
   14200   0.85182844   -4.4143388    1.9055738    1.1922132      1775000      0.55568 
   14400   0.85182844   -4.2379439    2.5448254    1.8314647      1800000   0.55570611 
   14600   0.85182844   -4.2738186    2.6611874    1.9478267      1825000   0.55567452 
   14800   0.85182844   -4.2505782    2.6945218    1.9811611      1850000   0.55568432 
   15000   0.85182844    -4.177944    2.9452795    2.2319189      1875000   0.55553387 
   15200   0.85182844    -4.467323    1.5217458    0.8083851      1900000   0.55558105 
   15400   0.85182844    -4.310521    2.1236443    1.4102836      1925000    0.5555787 
   15600   0.85182844   -4.4131202    1.8235767     1.110216      1950000   0.55559179 
   15800   0.85182844   -4.2689385    2.5433602    1.8299996      1975000   0.55555291 
   16000   0.85182844   -4.5528247    1.2110624   0.49770174      2000000      0.55562 
   16200   0.85182844   -4.1759114    2.8493746    2.1360139      2025000   0.55556148 
   16400   0.85182844   -4.4534988    1.7174942    1.0041335      2050000   0.55560146 
   16600   0.85182844   -4.2646035    2.4168756    1.7035149      2075000   0.55554313 
   16800   0.85182844   -4.2381792    2.4672908    1.7539301      2100000   0.55552762 
   17000   0.85182844   -4.3991103    1.9054495    1.1920889      2125000   0.55556753 
   17200   0.85182844   -4.4210342    1.6823935   0.96903282      2150000   0.55559721 
   17400   0.85182844   -4.4541699    1.5729024   0.85954175      2175000   0.55560368 
   17600   0.85182844   -4.3776585    2.0359592    1.3225985      2200000   0.55570091 
   17800   0.85182844   -4.3794164     1.981516    1.2681553      2225000   0.55570382 
   18000   0.85182844   -4.5335515    1.1175996   0.40423894      2250000   0.55573911 
   18200   0.85182844   -4.2011639    2.8302503    2.1168896      2275000   0.55569055 
   18400   0.85182844   -4.4263341    1.6112386   0.89787792      2300000   0.55566957 
   18600   0.85182844   -4.3874292    1.7269521    1.0135915      2325000   0.55573204 
   18800   0.85182844   -4.4190108    1.6981165   0.98475589      2350000   0.55567404 
   19000   0.85182844   -4.4325757    1.6149775   0.90161685      2375000   0.55571958 
   19200   0.85182844   -4.4317783    1.7251627     1.011802      2400000   0.55575083 
   19400   0.85182844    -4.395749    2.0875859    1.3742252      2425000   0.55576948 
   19600   0.85182844   -4.3088483    2.2444596     1.531099      2450000   0.55576531 
   19800   0.85182844   -4.1754519    2.8445265    2.1311658      2475000   0.55577818 
   20000   0.85182844   -4.4655415    1.6314207   0.91806001      2500000    0.5558036 
   20200   0.85182844   -4.3506426     2.125837    1.4124763      2525000   0.55582693 
   20400   0.85182844   -4.4342402    1.5842305   0.87086985      2550000   0.55584863 
   20600   0.85182844   -4.3843367    2.0092586    1.2958979      2575000    0.5557635 
   20800   0.85182844   -4.3870053    1.7391549    1.0257943      2600000   0.55573346 
   21000   0.85182844   -4.6008587   0.85951534   0.14615468      2625000   0.55585524 
   21200   0.85182844   -4.4225898    1.7347824    1.0214218      2650000   0.55588981 
   21400   0.85182844   -4.4302955    1.7775853    1.0642247      2675000   0.55591888 
   21600   0.85182844    -4.433931    1.7368128    1.0234521      2700000   0.55601963 
   21800   0.85182844   -4.3050878    2.2736713    1.5603106      2725000   0.55596991 
   22000   0.85182844   -4.3438247    2.0867645    1.3734039      2750000   0.55598036 
   22200   0.85182844   -4.2171227    2.6544001    1.9410395      2775000   0.55601081 
   22400   0.85182844   -4.3671951    2.0824271    1.3690665      2800000   0.55606214 
   22600   0.85182844   -4.4247245    1.7986319    1.0852712      2825000   0.55609912 
   22800   0.85182844   -4.3307502    2.1349388    1.4215782      2850000   0.55607614 
   23000   0.85182844   -4.2667111    2.3665855    1.6532249      2875000   0.55606678 
   23200   0.85182844   -4.4462001    1.7171595    1.0037988      2900000   0.55603276 
   23400   0.85182844    -4.410819    1.5844512   0.87109052      2925000   0.55601846 
   23600   0.85182844   -4.3654224    2.1052547    1.3918941      2950000   0.55601559 
   23800   0.85182844   -4.2342901    2.7585543    2.0451936      2975000   0.55598286 
   24000   0.85182844    -4.214743    2.5954605    1.8820998      3000000   0.55594533 
   24200   0.85182844   -4.3684196    1.9962683    1.2829077      3025000   0.55594975 
   24400   0.85182844   -4.2080416    2.6519404    1.9385797      3050000   0.55598918 
   24600   0.85182844    -4.475393     1.527219    0.8138583      3075000   0.55598309 
   24800   0.85182844   -4.3107706    2.1723588    1.4589982      3100000   0.55596032 
   25000   0.85182844   -4.3670608    1.9128351    1.1994744      3125000   0.55596096 
   25200   0.85182844   -4.4189279    1.7049563   0.99159564      3150000   0.55596889 
   25400   0.85182844   -4.3854364    1.8343197     1.120959      3175000   0.55593417 
   25600   0.85182844   -4.4001942    1.8448765    1.1315159      3200000    0.5559025 
   25800   0.85182844   -4.3845979    1.8932728    1.1799121      3225000   0.55587597 
   26000   0.85182844   -4.3858708    1.9293179    1.2159573      3250000   0.55589754 
   26200   0.85182844   -4.3101677    2.3491279    1.6357672      3275000   0.55585527 
   26400   0.85182844   -4.2849149     2.557747    1.8443864      3300000   0.55583788 
   26600   0.85182844    -4.414478    1.8344621    1.1211014      3325000   0.55582887 
   26800   0.85182844    -4.207431    2.7913436    2.0779829      3350000   0.55580716 
   27000   0.85182844   -4.4099238    1.7530344    1.0396737      3375000   0.55574756 
   27200   0.85182844   -4.3201226    2.1795959    1.4662352      3400000   0.55573853 
   27400   0.85182844    -4.358276    1.8783778    1.1650172      3425000   0.55572613 
   27600   0.85182844   -4.2727604    2.3598762    1.6465155      3450000       0.5557 
   27800   0.85182844   -4.3772182    2.0193021    1.3059414      3475000    0.5556518 
   28000   0.85182844   -4.4049681    1.8378885    1.1245279      3500000   0.55566229 
   28200   0.85182844   -4.4114917    1.9007919    1.1874312      3525000   0.55565475 
   28400   0.85182844   -4.4553816    1.4833209   0.76996027      3550000   0.55562451 
   28600   0.85182844   -4.4777975    1.5607328   0.84737209      3575000   0.55568476 
   28800   0.85182844   -4.4634607    1.5747388   0.86137816      3600000   0.55572972 
   29000   0.85182844   -4.3587106    1.9379724    1.2246118      3625000   0.55576414 
   29200   0.85182844   -4.4699699    1.4635419    0.7501812      3650000   0.55578849 
   29400   0.85182844   -4.3621717     1.930305    1.2169443      3675000   0.55578667 
   29600   0.85182844   -4.3944788    1.9316142    1.2182535      3700000   0.55578541 
   29800   0.85182844   -4.2569291     2.682229    1.9688684      3725000    0.5556902 
   30000   0.85182844   -4.4606691    1.6237836    0.9104229      3750000   0.55565493 
   30200   0.85182844    -4.230027     2.708375    1.9950143      3775000   0.55564662 
   30400   0.85182844   -4.3882557    1.7810747     1.067714      3800000   0.55567658 
   30600   0.85182844   -4.2491352     2.562347    1.8489864      3825000   0.55571922 
   30800   0.85182844   -4.3642493    2.0346101    1.3212495      3850000   0.55575766 
   31000   0.85182844    -4.220508    2.8332439    2.1198832      3875000   0.55575716 
   31200   0.85182844   -4.4334554    1.6622176   0.94885695      3900000   0.55575795 
   31400   0.85182844   -4.3330655    2.0915209    1.3781603      3925000   0.55581885 
   31600   0.85182844   -4.3448487      2.16257    1.4492094      3950000   0.55587671 
   31800   0.85182844    -4.360055    1.9313759    1.2180153      3975000   0.55586541 
   32000   0.85182844   -4.3760501    1.8602903    1.1469296      4000000     0.555814 
   32200   0.85182844   -4.3637446    2.2244385    1.5110778      4025000   0.55576273 
   32400   0.85182844   -4.3187981    2.1355119    1.4221512      4050000   0.55573901 
   32600   0.85182844   -4.3218787    2.1981214    1.4847607      4075000   0.55573006 
   32800   0.85182844   -4.2772097    2.3260669    1.6127063      4100000   0.55574366 
   33000   0.85182844   -4.3161673    2.1658394    1.4524787      4125000   0.55574036 
   33200   0.85182844   -4.3057705    2.4331319    1.7197713      4150000   0.55572482 
   33400   0.85182844   -4.4079894    1.8100312    1.0966706      4175000   0.55568886 
   33600   0.85182844   -4.3453009    1.9048083    1.1914477      4200000   0.55568429 
   33800   0.85182844   -4.2316616    2.7037157    1.9903551      4225000   0.55565041 
   34000   0.85182844   -4.2828607    2.4724191    1.7590584      4250000   0.55562871 
   34200   0.85182844    -4.503639    1.2136559   0.50029527      4275000   0.55560772 
   34400   0.85182844   -4.3148823    2.3040562    1.5906955      4300000   0.55561767 
   34600   0.85182844   -4.4124654    1.6895645   0.97620388      4325000   0.55561387 
   34800   0.85182844   -4.3689132    2.0854234    1.3720628      4350000   0.55559333 
   35000   0.85182844   -4.3840355    2.0933752    1.3800145      4375000   0.55558606 
   35200   0.85182844   -4.2463752    2.4872381    1.7738774      4400000   0.55559818 
   35400   0.85182844   -4.4517387    1.4944426    0.7810819      4425000   0.55560136 
   35600   0.85182844   -4.5014364    1.3796368   0.66627612      4450000   0.55561371 
   35800   0.85182844   -4.4246653    1.6828483   0.96948766      4475000   0.55566391 
   36000   0.85182844   -4.2835726      2.57574    1.8623793      4500000   0.55570089 
   36200   0.85182844   -4.4310242    1.7656351    1.0522744      4525000   0.55574431 
   36400   0.85182844   -4.3108519    2.2555478    1.5421871      4550000   0.55575121 
   36600   0.85182844   -4.4313179    1.7728401    1.0594795      4575000   0.55576546 
   36800   0.85182844   -4.3154684    2.3500796    1.6367189      4600000   0.55578522 
   37000   0.85182844   -4.3171711    2.2599199    1.5465593      4625000   0.55577384 
   37200   0.85182844   -4.4255562    1.7496222    1.0362615      4650000   0.55571978 
   37400   0.85182844    -4.453836    1.4850055   0.77164481      4675000   0.55569775 
   37600   0.85182844   -4.2944414    2.3601441    1.6467834      4700000   0.55566957 
   37800   0.85182844   -4.2462785    2.6060165    1.8926558      4725000   0.55569989 
   38000   0.85182844   -4.1789472    2.8406604    2.1272997      4750000   0.55565221 
   38200   0.85182844   -4.3493726    2.1563923    1.4430316      4775000   0.55564188 
   38400   0.85182844   -4.3918575    1.8559464    1.1425858      4800000   0.55566896 
   38600   0.85182844    -4.349744    2.1566049    1.4432442      4825000   0.55567959 
   38800   0.85182844   -4.3024844    2.2478751    1.5345145      4850000   0.55569278 
   39000   0.85182844   -4.3355457    2.1204113    1.4070506      4875000   0.55568451 
   39200   0.85182844   -4.4339982    1.5784378   0.86507719      4900000    0.5556651 
   39400   0.85182844   -4.3704648    1.9642899    1.2509292      4925000   0.55569096 
   39600   0.85182844   -4.3297122     2.038663    1.3253024      4950000    0.5557002 
   39800   0.85182844    -4.336519    1.9778481    1.2644874      4975000   0.55569327 
   40000   0.85182844   -4.4335543    1.7398628    1.0265022      5000000    0.5556634 
   40200   0.85182844   -4.3154903    2.1389443    1.4255837      5025000   0.55563463 
   40400   0.85182844   -4.3704269    2.0861902    1.3728295      5050000   0.55562772 
   40600   0.85182844   -4.4139012    1.7282868    1.0149261      5075000   0.55563153 
   40800   0.85182844   -4.3351917    2.1922778    1.4789172      5100000   0.55562745 
   41000   0.85182844   -4.3213589    2.0540861    1.3407254      5125000   0.55563239 
   41200   0.85182844   -4.2955014    2.2893918    1.5760311      5150000    0.5556033 
   41400   0.85182844   -4.4845733    1.6142714   0.90091076      5175000   0.55563594 
   41600   0.85182844   -4.4656383    1.5999917   0.88663105      5200000   0.55566904 
   41800   0.85182844   -4.4042188    1.8854058    1.1720452      5225000   0.55568191 
   42000   0.85182844   -4.3993575    2.0786321    1.3652715      5250000   0.55570495 
   42200   0.85182844   -4.2198939    2.8433889    2.1300282      5275000   0.55568512 
   42400   0.85182844   -4.3646094    1.7735134    1.0601528      5300000   0.55569472 
   42600   0.85182844    -4.298627    2.2953645    1.5820039      5325000   0.55572958 
   42800   0.85182844   -4.2465186     2.661918    1.9485574      5350000   0.55569925 
   43000   0.85182844   -4.4208331    1.8374201    1.1240594      5375000   0.55568986 
   43200   0.85182844   -4.3149307    2.3183292    1.6049685      5400000   0.55567667 
   43400   0.85182844   -4.1952149    2.8952833    2.1819226      5425000   0.55569327 
   43600   0.85182844   -4.2549792    2.3478366     1.634476      5450000   0.55569358 
   43800   0.85182844   -4.3060324    2.4252404    1.7118798      5475000    0.5556968 
   44000   0.85182844   -4.2802648    2.6300864    1.9167258      5500000   0.55567855 
   44200   0.85182844   -4.4223841    1.9275041    1.2141435      5525000   0.55567566 
   44400   0.85182844   -4.3028354    2.2555269    1.5421663      5550000   0.55565568 
   44600   0.85182844   -4.4209908    1.7318309    1.0184703      5575000   0.55564251 
   44800   0.85182844   -4.4483276    1.6236355   0.91027483      5600000   0.55566393 
   45000   0.85182844   -4.4195851    1.8005522    1.0871915      5625000   0.55566578 
   45200   0.85182844   -4.5340748    1.2530785   0.53971782      5650000   0.55566425 
   45400   0.85182844   -4.3893579    1.9643134    1.2509528      5675000   0.55569233 
   45600   0.85182844    -4.325494    2.1297407      1.41638      5700000   0.55567123 
   45800   0.85182844   -4.3379834    2.0870915    1.3737308      5725000   0.55568245 
   46000   0.85182844   -4.3589227    1.8910503    1.1776896      5750000   0.55567565 
   46200   0.85182844   -4.4809954     1.180343   0.46698238      5775000   0.55569506 
   46400   0.85182844     -4.43171    1.7253852    1.0120246      5800000   0.55572172 
   46600   0.85182844    -4.433751    1.6924702   0.97910956      5825000   0.55571245 
   46800   0.85182844   -4.4018535     1.860929    1.1475683      5850000   0.55572906 
   47000   0.85182844   -4.3501561    1.8760439    1.1626832      5875000   0.55571149 
   47200   0.85182844   -4.2434799    2.5420092    1.8286486      5900000   0.55573864 
   47400   0.85182844   -4.2735907    2.5005372    1.7871766      5925000   0.55569857 
   47600   0.85182844   -4.4720845    1.4969854    0.7836247      5950000   0.55571395 
   47800   0.85182844   -4.4412929    1.6306356   0.91727498      5975000   0.55569322 
   48000   0.85182844   -4.1523971    3.0930831    2.3797224      6000000     0.555728 
   48200   0.85182844   -4.3466817    2.1897654    1.4764048      6025000   0.55569328 
   48400   0.85182844   -4.3588823    1.8999989    1.1866383      6050000   0.55568562 
   48600   0.85182844   -4.4834652    1.4697525   0.75639181      6075000   0.55569761 
   48800   0.85182844   -4.3959869    1.9094455    1.1960848      6100000   0.55575246 
   49000   0.85182844   -4.2484821    2.8400447     2.126684      6125000   0.55573959 
   49200   0.85182844   -4.4068084     1.707582   0.99422132      6150000    0.5557348 
   49400   0.85182844    -4.408075    1.8613385    1.1479778      6175000    0.5557187 
   49600   0.85182844   -4.2578157    2.4731966     1.759836      6200000    0.5557029 
   49800   0.85182844   -4.4027714    2.0517841    1.3384235      6225000   0.55568707 
   50000   0.85182844   -4.4554905    1.6887475   0.97538683      6250000    0.5556688 
Loop time of 485.541 on 1 procs for 50000 steps with 125 atoms

Performance: 44486.430 tau/day, 102.978 timesteps/s
99.6% CPU use with 1 MPI tasks x no OpenMP threads

MPI task timing breakdown:
Section |  min time  |  avg time  |  max time  |%varavg| %total
---------------------------------------------------------------
Pair    | 20.352     | 20.352     | 20.352     |   0.0 |  4.19
Neigh   | 43.082     | 43.082     | 43.082     |   0.0 |  8.87
Comm    | 2.797      | 2.797      | 2.797      |   0.0 |  0.58
Output  | 0.012568   | 0.012568   | 0.012568   |   0.0 |  0.00
Modify  | 418.78     | 418.78     | 418.78     |   0.0 | 86.25
Other   |            | 0.5212     |            |       |  0.11

Nlocal:        125.000 ave         125 max         125 min
Histogram: 1 0 0 0 0 0 0 0 0 0
Nghost:        1678.00 ave        1678 max        1678 min
Histogram: 1 0 0 0 0 0 0 0 0 0
Neighs:        12054.0 ave       12054 max       12054 min
Histogram: 1 0 0 0 0 0 0 0 0 0

Total # of neighbors = 12054
Ave neighs/atom = 96.432000
Neighbor list builds = 50000
Dangerous builds not checked

variable	p equal f_ave_p

print	"Average virial pressure from MC: $p"
Average virial pressure from MC: 1.34799255681385
Total wall time: 0:09:41
