
variable        mcmoves equal f_montecarlo[1]
variable        mcaccratio equal f_montecarlo[2]/(f_montecarlo[1]+1e-10)

thermo_style	custom step temp etotal press c_p_all v_mcmoves v_mcaccratio

thermo	200

run		${prodlength}
run		20000
WARNING: Fix gcmc is being applied to the default group all (../fix_gcmc.cpp:663)
Per MPI rank memory allocation (min/avg/max) = 2.636 | 2.636 | 2.636 Mbytes
Step Temp TotEng Press c_p_all v_mcmoves v_mcaccratio 
       0   0.96736111   -4.1195203    2.5088063    1.6986932            0            0 
     200   0.96736111   -4.1590924    2.4053263    1.5952133        25000      0.55964 
     400   0.96736111   -4.1452058    2.3225128    1.5123997        50000      0.55936 
     600   0.96736111   -4.2437711    1.6525419   0.84242878        75000   0.56085333 
     800   0.96736111    -4.091145    2.5348809    1.7247679       100000      0.56129 
    1000   0.96736111   -4.0236261    2.9550261     2.144913       125000     0.559984 
    1200   0.96736111   -4.0956885    2.5419738    1.7318607       150000   0.55911333 
    1400   0.96736111   -4.2900357    1.7069816   0.89686847       175000   0.55941143 
    1600   0.96736111   -4.1555839     2.171108    1.3609949       200000     0.559775 
    1800   0.96736111   -4.2247452    1.8703387    1.0602256       225000   0.55988889 
    2000   0.96736111   -4.3213457    1.6150394   0.80492634       250000     0.559808 
    2200   0.96736111   -4.1937734    2.2472663    1.4371532       275000   0.56045455 
    2400   0.96736111   -4.2233273    1.7516655   0.94155239       300000      0.56042 
    2600   0.96736111   -4.3661082    1.2324094   0.42229632       325000   0.56024615 
    2800   0.96736111   -4.2146081    2.3105676    1.5004545       350000   0.56006286 
    3000   0.96736111   -4.1681173    2.2475861    1.4374731       375000     0.559488 
    3200   0.96736111   -4.2642497    1.6665241   0.85641104       400000    0.5588675 
    3400   0.96736111   -4.2429182    1.7984428   0.98832977       425000   0.55855059 
    3600   0.96736111   -4.1011514    2.5420483    1.7319352       450000   0.55804889 
    3800   0.96736111   -4.0177567    3.0014005    2.1912875       475000   0.55766737 
    4000   0.96736111   -4.1893052    2.0749517    1.2648386       500000     0.557688 
    4200   0.96736111   -4.1571766    2.1965109    1.3863978       525000   0.55772762 
    4400   0.96736111   -4.2973706    1.5707032   0.76059014       550000   0.55729455 
    4600   0.96736111    -4.303063    1.5486698    0.7385567       575000   0.55705913 
    4800   0.96736111   -4.2895385    1.6832848   0.87317174       600000      0.55673 
    5000   0.96736111   -4.3069838    1.5139106   0.70379748       625000      0.55656 
    5200   0.96736111   -4.1142169    2.4624318    1.6523187       650000   0.55698462 
    5400   0.96736111   -4.1506592    2.5636373    1.7535243       675000   0.55686667 
    5600   0.96736111    -4.306849    1.6147797    0.8046666       700000   0.55667429 
    5800   0.96736111   -4.0829199    2.5547512    1.7446381       725000   0.55659448 
    6000   0.96736111   -4.1074038    2.3858864    1.5757733       750000   0.55648933 
    6200   0.96736111   -4.1371231    2.3261926    1.5160795       775000   0.55620258 
    6400   0.96736111   -4.1491108    2.3386359    1.5285228       800000     0.556115 
    6600   0.96736111   -4.1793531    2.1148261     1.304713       825000   0.55614545 
    6800   0.96736111   -4.3057932    1.4381322   0.62801914       850000   0.55658353 
    7000   0.96736111   -4.2573882    1.8187873    1.0086742       875000   0.55660229 
    7200   0.96736111   -4.1701378    2.1693701    1.3592571       900000   0.55672111 
    7400   0.96736111   -4.1457866    2.3187505    1.5086374       925000   0.55659459 
    7600   0.96736111   -4.2415115    1.8709281    1.0608151       950000   0.55655789 
    7800   0.96736111   -4.2071017    2.0312744    1.2211613       975000   0.55668103 
    8000   0.96736111   -4.2604691    1.8545997    1.0444866      1000000     0.556742 
    8200   0.96736111   -4.2852324     1.652323   0.84220987      1025000    0.5568439 
    8400   0.96736111   -4.1041136    2.4527787    1.6426656      1050000   0.55680857 
    8600   0.96736111   -4.2311301    1.9488325    1.1387195      1075000   0.55693395 
    8800   0.96736111   -4.2037541    2.1197288    1.3096157      1100000   0.55697182 
    9000   0.96736111   -4.2334129    1.9905059    1.1803928      1125000   0.55703822 
    9200   0.96736111   -4.0505374     2.737007    1.9268939      1150000   0.55708957 
    9400   0.96736111   -4.2780139    1.7274084   0.91729537      1175000   0.55706213 
    9600   0.96736111   -4.0378315    2.6647617    1.8546486      1200000   0.55701667 
    9800   0.96736111   -4.2320596    1.7647629    0.9546498      1225000   0.55701714 
   10000   0.96736111   -4.0370888     2.853123    2.0430099      1250000    0.5569448 
   10200   0.96736111   -3.8934588    3.6217656    2.8116525      1275000   0.55688157 
   10400   0.96736111   -4.2654739    1.7837964   0.97368336      1300000   0.55685385 
   10600   0.96736111   -4.1402062    2.3678787    1.5577656      1325000   0.55686113 
   10800   0.96736111   -4.1887038    2.1147666    1.3046535      1350000   0.55686815 
   11000   0.96736111   -4.0458596    2.8946329    2.0845198      1375000   0.55685455 
   11200   0.96736111   -4.0891691    2.5517263    1.7416132      1400000     0.556845 
   11400   0.96736111   -4.2712989    1.8939272    1.0838142      1425000   0.55674246 
   11600   0.96736111   -4.1743886    2.2871338    1.4770207      1450000   0.55668207 
   11800   0.96736111   -4.1132527    2.4209234    1.6108104      1475000   0.55654102 
   12000   0.96736111   -4.2941163    1.5474215   0.73730838      1500000      0.55663 
   12200   0.96736111   -4.1887436    2.1775242    1.3674111      1525000    0.5567318 
   12400   0.96736111   -4.1922451    2.1310907    1.3209776      1550000   0.55680774 
   12600   0.96736111   -4.2223451    2.0027547    1.1926417      1575000   0.55677333 
   12800   0.96736111   -4.2369002    1.9649005    1.1547874      1600000   0.55671812 
   13000   0.96736111   -4.2657809    1.7687703   0.95865721      1625000   0.55663631 
   13200   0.96736111   -4.3430265    1.4403667   0.63025362      1650000   0.55670667 
   13400   0.96736111   -4.3498981    1.2991122   0.48899909      1675000    0.5567206 
   13600   0.96736111   -4.1650899    2.1829802    1.3728671      1700000   0.55664765 
   13800   0.96736111   -4.1544848    2.2636218    1.4535087      1725000   0.55667478 
   14000   0.96736111   -4.2125126    2.0605799    1.2504668      1750000     0.556784 
   14200   0.96736111   -4.2142025    2.0649761     1.254863      1775000   0.55668225 
   14400   0.96736111   -4.2638234    1.8570783    1.0469652      1800000   0.55660556 
   14600   0.96736111   -4.1653959    2.0624075    1.2522944      1825000   0.55665425 
   14800   0.96736111   -4.1702472    2.1748195    1.3647064      1850000   0.55662432 
   15000   0.96736111   -4.0970643    2.5698456    1.7597325      1875000   0.55658933 
   15200   0.96736111    -4.150621     2.305183    1.4950699      1900000   0.55655789 
   15400   0.96736111   -4.2084019    1.9271654    1.1170523      1925000   0.55653195 
   15600   0.96736111   -4.1254431    2.6463007    1.8361876      1950000   0.55634821 
   15800   0.96736111   -4.0703433    2.4187388    1.6086257      1975000   0.55628506 
   16000   0.96736111   -4.1289253    2.3767303    1.5666172      2000000    0.5563215 
   16200   0.96736111   -4.0776866    2.3758502    1.5657372      2025000   0.55623457 
   16400   0.96736111   -4.2001153    1.8407282    1.0306151      2050000   0.55626146 
   16600   0.96736111    -4.136664    2.4566799    1.6465668      2075000   0.55612048 
   16800   0.96736111   -4.1082186    2.5435553    1.7334422      2100000   0.55611048 
   17000   0.96736111   -4.1832484    2.1436749    1.3335618      2125000     0.556128 
   17200   0.96736111   -4.1393345    2.3902547    1.5801416      2150000    0.5561786 
   17400   0.96736111   -4.2301874    2.0386185    1.2285054      2175000   0.55609103 
   17600   0.96736111   -4.0575549    2.9117947    2.1016816      2200000   0.55611909 
   17800   0.96736111   -4.0085088    2.9918918    2.1817787      2225000   0.55597573 
   18000   0.96736111   -4.1759601    2.2988693    1.4887563      2250000   0.55596711 
   18200   0.96736111    -4.088009    2.6670231      1.85691      2275000   0.55590374 
   18400   0.96736111   -4.2010897    2.0724538    1.2623407      2300000   0.55585609 
   18600   0.96736111   -4.1431874     2.316559    1.5064459      2325000   0.55578882 
   18800   0.96736111   -4.1886161    2.2290682    1.4189552      2350000   0.55574936 
   19000   0.96736111   -4.0721096    2.7554018    1.9452887      2375000   0.55570737 
   19200   0.96736111    -4.080606    2.5265823    1.7164692      2400000   0.55563417 
   19400   0.96736111   -4.1610368     2.289665    1.4795519      2425000   0.55558515 
   19600   0.96736111   -4.1494853    2.4229025    1.6127894      2450000   0.55554612 
   19800   0.96736111   -4.1104268    2.3632218    1.5531088      2475000    0.5555301 
   20000   0.96736111   -4.1920798    2.2220595    1.4119464      2500000     0.555532 
Loop time of 192.627 on 1 procs for 20000 steps with 125 atoms

Performance: 44853.500 tau/day, 103.828 timesteps/s
99.6% CPU use with 1 MPI tasks x no OpenMP threads

MPI task timing breakdown:
Section |  min time  |  avg time  |  max time  |%varavg| %total
---------------------------------------------------------------
Pair    | 8.013      | 8.013      | 8.013      |   0.0 |  4.16
Neigh   | 17.242     | 17.242     | 17.242     |   0.0 |  8.95
Comm    | 1.1058     | 1.1058     | 1.1058     |   0.0 |  0.57
Output  | 0.0050505  | 0.0050505  | 0.0050505  |   0.0 |  0.00
Modify  | 166.06     | 166.06     | 166.06     |   0.0 | 86.21
Other   |            | 0.2022     |            |       |  0.10

Nlocal:        125.000 ave         125 max         125 min
Histogram: 1 0 0 0 0 0 0 0 0 0
Nghost:        1663.00 ave        1663 max        1663 min
Histogram: 1 0 0 0 0 0 0 0 0 0
Neighs:        11988.0 ave       11988 max       11988 min
Histogram: 1 0 0 0 0 0 0 0 0 0

Total # of neighbors = 11988
Ave neighs/atom = 95.904000
Neighbor list builds = 20000
Dangerous builds not checked

variable	p equal f_ave_p

print	"Average virial pressure from MC: $p"
Average virial pressure from MC: 1.37995007908717
Total wall time: 0:04:05
