
variable        mcmoves equal f_montecarlo[1]
variable        mcaccratio equal f_montecarlo[2]/(f_montecarlo[1]+1e-10)

thermo_style	custom step temp etotal press c_p_all v_mcmoves v_mcaccratio

thermo	200

run		${prodlength}
run		20000
WARNING: Fix gcmc is being applied to the default group all (../fix_gcmc.cpp:663)
Per MPI rank memory allocation (min/avg/max) = 2.636 | 2.636 | 2.636 Mbytes
Step Temp TotEng Press c_p_all v_mcmoves v_mcaccratio 
       0     5.534637    5.9992071    20.867836    16.232874            0            0 
     200     5.534637    5.6682157     19.55782    14.922858        25000      0.69308 
     400     5.534637     5.436765    18.565577    13.930615        50000      0.69522 
     600     5.534637     5.282391    17.460584    12.825622        75000   0.69946667 
     800     5.534637    5.5736481    18.856511     14.22155       100000      0.70102 
    1000     5.534637    5.4874467    18.670374    14.035412       125000     0.700512 
    1200     5.534637    5.3505104    17.916272     13.28131       150000      0.69936 
    1400     5.534637    5.3544349    17.988105    13.353143       175000      0.70024 
    1600     5.534637    5.3759475    17.931383    13.296421       200000     0.700235 
    1800     5.534637    5.3142763    17.849241     13.21428       225000   0.69951556 
    2000     5.534637    5.3390318    17.937664    13.302702       250000     0.699108 
    2200     5.534637    6.0811256    21.147589    16.512627       275000   0.69930182 
    2400     5.534637    4.6413209    14.967031     10.33207       300000   0.69947333 
    2600     5.534637    5.6566975     19.15928    14.524318       325000   0.69971692 
    2800     5.534637    5.5932746    18.870205    14.235244       350000   0.70005143 
    3000     5.534637    5.7445121    19.536164    14.901202       375000   0.69957867 
    3200     5.534637    5.3786696    18.143805    13.508843       400000    0.6993025 
    3400     5.534637    5.3226176    17.921487    13.286526       425000       0.6992 
    3600     5.534637    5.3166795     17.77744    13.142478       450000   0.69905556 
    3800     5.534637    6.2131747    21.920406    17.285444       475000   0.69897263 
    4000     5.534637    5.6335481    19.016151    14.381189       500000     0.698622 
    4200     5.534637     5.444648    18.516041    13.881079       525000   0.69869333 
    4400     5.534637    5.7519281    19.639504    15.004542       550000   0.69832364 
    4600     5.534637    5.2604341    17.623649    12.988687       575000   0.69840348 
    4800     5.534637     5.372148      18.0675    13.432539       600000   0.69841667 
    5000     5.534637    5.1076725    16.753054    12.118092       625000    0.6984704 
    5200     5.534637    5.3272007    18.203147    13.568185       650000   0.69871077 
    5400     5.534637    5.2637285    17.762017    13.127055       675000   0.69881037 
    5600     5.534637    5.0420742    16.692496    12.057534       700000   0.69889286 
    5800     5.534637    5.3722549    17.947957    13.312996       725000   0.69915034 
    6000     5.534637    5.4045513    18.488938    13.853976       750000   0.69930133 
    6200     5.534637    4.7727177     15.41974    10.784778       775000   0.69939484 
    6400     5.534637    5.2621115    17.542853    12.907892       800000   0.69952875 
    6600     5.534637    5.2493845      17.5092    12.874238       825000   0.69970909 
    6800     5.534637    5.1810138    17.383229    12.748267       850000   0.69987765 
    7000     5.534637    5.3920152     18.46107    13.826108       875000   0.70003429 
    7200     5.534637     5.153923    17.302378    12.667417       900000   0.70026889 
    7400     5.534637    5.3820213    18.250764    13.615802       925000   0.70024108 
    7600     5.534637    5.0747479    16.691159    12.056197       950000   0.70023263 
    7800     5.534637    5.2065522    17.489848    12.854886       975000   0.70026872 
    8000     5.534637     4.976091    16.707538    12.072576      1000000       0.7001 
    8200     5.534637    5.5234486    18.511015    13.876053      1025000   0.70025561 
    8400     5.534637    4.7916268    15.888353    11.253391      1050000   0.70025238 
    8600     5.534637    5.6903837     19.36248    14.727518      1075000   0.70018512 
    8800     5.534637    5.6085026    18.825842     14.19088      1100000   0.70019818 
    9000     5.534637     5.838538    20.059602     15.42464      1125000   0.70018222 
    9200     5.534637    5.3380344     18.07254    13.437579      1150000   0.70018174 
    9400     5.534637     5.451108    18.460035    13.825073      1175000   0.70019064 
    9600     5.534637    5.7727046     19.51152    14.876558      1200000    0.7002125 
    9800     5.534637     5.591158    19.139727    14.504765      1225000   0.70030939 
   10000     5.534637    5.6518279    19.520023    14.885062      1250000    0.7003304 
   10200     5.534637    5.8238229    20.043446    15.408485      1275000   0.70023294 
   10400     5.534637    5.7425023    19.849171    15.214209      1300000   0.70001308 
   10600     5.534637    6.3731436    22.111411    17.476449      1325000   0.69990943 
   10800     5.534637    5.3748044    18.357961    13.722999      1350000   0.70000148 
   11000     5.534637    5.9387103    20.895519    16.260557      1375000   0.69984655 
   11200     5.534637    5.5921278    19.321568    14.686606      1400000   0.69979357 
   11400     5.534637    5.2805691    18.171403    13.536441      1425000   0.69974526 
   11600     5.534637    5.4968237    18.873544    14.238583      1450000   0.69978483 
   11800     5.534637    5.9338809    20.662543    16.027582      1475000   0.69981763 
   12000     5.534637    5.6452664    19.004889    14.369927      1500000     0.699846 
   12200     5.534637    5.3502525    18.099532     13.46457      1525000   0.69981836 
   12400     5.534637    5.3059267    18.067415    13.432453      1550000      0.69964 
   12600     5.534637    5.2182399    17.491196    12.856235      1575000   0.69968698 
   12800     5.534637    6.1343267    21.114696    16.479734      1600000   0.69972875 
   13000     5.534637    5.9076294    20.292241    15.657279      1625000   0.69972062 
   13200     5.534637    5.4967571    18.724845    14.089883      1650000   0.69974121 
   13400     5.534637    4.8808015    16.140135    11.505173      1675000   0.69974149 
   13600     5.534637    5.6417908    19.167587    14.532625      1700000   0.69973235 
   13800     5.534637    5.7352136      20.3677    15.732738      1725000   0.69963304 
   14000     5.534637     5.406463    18.230456    13.595494      1750000   0.69973486 
   14200     5.534637    5.1414557    17.248424    12.613462      1775000   0.69982085 
   14400     5.534637    5.7211876    19.594352    14.959391      1800000      0.69973 
   14600     5.534637    5.5950838    18.931303    14.296341      1825000    0.6997211 
   14800     5.534637    5.6768626     19.79355    15.158588      1850000   0.69966811 
   15000     5.534637    5.6870643    19.401768    14.766806      1875000   0.69972853 
   15200     5.534637    5.2628725    17.888498    13.253536      1900000   0.69974316 
   15400     5.534637    5.1634994    17.404101     12.76914      1925000   0.69973091 
   15600     5.534637    5.0609676    16.627061    11.992099      1950000   0.69980308 
   15800     5.534637    5.3039733     17.93182    13.296858      1975000   0.69980152 
   16000     5.534637    6.0878375    21.355755    16.720794      2000000    0.6997875 
   16200     5.534637    6.2235264    21.737147    17.102185      2025000   0.69973333 
   16400     5.534637    5.5554129    18.845748    14.210786      2050000   0.69967561 
   16600     5.534637    5.8933887    20.374739    15.739777      2075000   0.69965012 
   16800     5.534637    5.8789378    20.169171    15.534209      2100000      0.69952 
   17000     5.534637     6.106728    21.603673    16.968711      2125000   0.69947012 
   17200     5.534637    5.5616748    18.675372     14.04041      2150000   0.69942605 
   17400     5.534637    4.8069055    15.573657    10.938695      2175000   0.69940276 
   17600     5.534637    5.4957665    18.733284    14.098322      2200000      0.69944 
   17800     5.534637    5.9941109    20.926388    16.291426      2225000   0.69944449 
   18000     5.534637    5.5718959    19.005723    14.370762      2250000   0.69948667 
   18200     5.534637    5.0254376    16.934219    12.299257      2275000   0.69944703 
   18400     5.534637     5.520753    18.729045    14.094084      2300000   0.69949043 
   18600     5.534637     5.768929    19.952369    15.317408      2325000   0.69944043 
   18800     5.534637     5.687755    19.490594    14.855632      2350000   0.69944638 
   19000     5.534637    5.7263503    19.507774    14.872812      2375000   0.69944042 
   19200     5.534637    5.4309568    18.619697    13.984735      2400000   0.69947042 
   19400     5.534637    5.0962935    16.835637    12.200675      2425000   0.69946392 
   19600     5.534637    5.5711323    18.845384    14.210422      2450000   0.69940286 
   19800     5.534637    5.9688488    20.574657    15.939695      2475000   0.69940525 
   20000     5.534637    5.0143507     16.67962    12.044659      2500000    0.6994196 
Loop time of 204.171 on 1 procs for 20000 steps with 125 atoms

Performance: 42317.552 tau/day, 97.957 timesteps/s
99.6% CPU use with 1 MPI tasks x no OpenMP threads

MPI task timing breakdown:
Section |  min time  |  avg time  |  max time  |%varavg| %total
---------------------------------------------------------------
Pair    | 8.1229     | 8.1229     | 8.1229     |   0.0 |  3.98
Neigh   | 16.819     | 16.819     | 16.819     |   0.0 |  8.24
Comm    | 1.0165     | 1.0165     | 1.0165     |   0.0 |  0.50
Output  | 0.0050935  | 0.0050935  | 0.0050935  |   0.0 |  0.00
Modify  | 178.02     | 178.02     | 178.02     |   0.0 | 87.19
Other   |            | 0.1877     |            |       |  0.09

Nlocal:        125.000 ave         125 max         125 min
Histogram: 1 0 0 0 0 0 0 0 0 0
Nghost:        1697.00 ave        1697 max        1697 min
Histogram: 1 0 0 0 0 0 0 0 0 0
Neighs:        12059.0 ave       12059 max       12059 min
Histogram: 1 0 0 0 0 0 0 0 0 0

Total # of neighbors = 12059
Ave neighs/atom = 96.472000
Neighbor list builds = 20000
Dangerous builds not checked

variable	p equal f_ave_p

print	"Average virial pressure from MC: $p"
Average virial pressure from MC: 14.0663832968594
Total wall time: 0:04:18
