LAMMPS (29 Sep 2021 - Update 2)
# 3d Lennard-Jones melt
units		lj
pair_style	lj/cut 2.5
atom_style	atomic
read_data "T01.4_nve.data"
Reading data file ...
  orthogonal box = (0.0000000 0.0000000 0.0000000) to (8.0180007 8.0180007 80.180007)
  1 by 1 by 1 MPI processor grid
  reading atoms ...
  5000 atoms
  reading velocities ...
  5000 velocities
  read_data CPU = 0.025 seconds

neighbor	0.3 bin
neigh_modify	every 20 delay 0 check no

dump		traj all custom 1000 dump_nph.data id x y z
fix 1 all nph aniso 6.48 6.48 1.0
thermo		500
run		200000
Neighbor list info ...
  update every 20 steps, delay 0 steps, check no
  max neighbors/atom: 2000, page size: 100000
  master list distance cutoff = 2.8
  ghost atom cutoff = 2.8
  binsize = 1.4, bins = 6 6 58
  1 neighbor lists, perpetual/occasional/extra = 1 0 0
  (1) pair lj/cut, perpetual
      attributes: half, newton on
      pair build: half/bin/atomonly/newton
      stencil: half/bin/3d
      bin: standard
Per MPI rank memory allocation (min/avg/max) = 5.289 | 5.289 | 5.289 Mbytes
Step Temp E_pair E_mol TotEng Press Volume 
       0    1.0892971   -5.9094378            0   -4.2758189    6.4083449    5154.6392 
     500    1.0993416   -5.9148565            0   -4.2661739    6.5702528    5142.4194 
    1000    1.1026963    -5.911608            0   -4.2578944    6.6722574    5133.8785 
    1500    1.1111005   -5.9267743            0   -4.2604568    6.6042654    5134.9385 
    2000    1.1100291   -5.9426524            0   -4.2779418    6.3382418    5148.8439 
    2500    1.0982977   -5.9372663            0   -4.2901491    6.2639686    5159.0929 
    3000     1.084698   -5.9180634            0   -4.2913418    6.2944443    5162.2314 
    3500    1.0965271   -5.9142671            0   -4.2698054    6.5601769    5142.8682 
    4000    1.1027459   -5.9363513            0   -4.2825632     6.334636     5152.358 
    4500    1.0940161   -5.9066449            0    -4.265949    6.6372402    5137.2885 
    5000    1.0877129   -5.9275515            0   -4.2963083    6.2795375    5160.4847 
    5500     1.121815   -5.9479829            0   -4.2655969     6.530774     5133.817 
    6000    1.1223414   -5.9441912            0   -4.2610159    6.5794274    5129.7114 
    6500    1.0930234   -5.9156084            0   -4.2764012    6.5216529    5142.8079 
    7000    1.1097155   -5.9308534            0    -4.266613    6.5504315    5133.6798 
    7500     1.094974   -5.9423276            0    -4.300195    6.2084466    5161.2863 
    8000    1.0863381   -5.9081215            0   -4.2789403    6.6378217    5140.9072 
    8500    1.0751173   -5.9046544            0    -4.292301    6.4777762    5151.6317 
    9000    1.0885149   -5.9359072            0   -4.3034613    6.2289838    5161.4278 
    9500    1.0826059    -5.923798            0    -4.300214    6.3308025    5158.1053 
   10000    1.1039409   -5.9281162            0   -4.2725361    6.5907278    5133.6109 
   10500    1.0904796   -5.9171486            0   -4.2817564    6.5569157    5142.1793 
   11000    1.0854784   -5.9143186            0   -4.2864267    6.5081874    5144.8565 
   11500    1.0928381   -5.9342713            0    -4.295342     6.369691    5151.9206 
   12000    1.1010044   -5.9379997            0   -4.2868234     6.438127    5144.1312 
   12500    1.0922962   -5.9204567            0     -4.28234    6.5274957    5140.2019 
   13000    1.0826019   -5.9138064            0   -4.2902283    6.5256977    5145.6113 
   13500    1.0940429   -5.9251618            0   -4.2844257    6.5501989    5139.2395 
   14000    1.0900048   -5.9294354            0   -4.2947552    6.4465244    5146.9612 
   14500    1.0934543   -5.9237535            0   -4.2839001    6.5204119    5139.7639 
   15000    1.0880164   -5.9207066            0   -4.2890084    6.5337203    5142.9121 
   15500    1.0869511     -5.92616            0   -4.2960594    6.4118418    5148.8881 
   16000     1.108856   -5.9503811            0   -4.2874298    6.4370601    5139.7003 
   16500    1.1008229   -5.9418404            0   -4.2909363     6.407554    5142.5292 
   17000     1.063181   -5.8989783            0   -4.3045258    6.4782598    5152.7628 
   17500    1.1107351   -5.9587556            0   -4.2929862    6.3495003    5142.5821 
   18000    1.0989851   -5.9348518            0   -4.2867038    6.5050567    5138.4942 
   18500    1.0933583    -5.914966            0   -4.2752566    6.6872243    5129.1872 
   19000    1.0861917   -5.9185746            0   -4.2896129    6.5315671    5141.5577 
   19500    1.0975648   -5.9211868            0   -4.2751688    6.6959175    5127.4491 
   20000    1.0780941   -5.9059458            0   -4.2891281     6.598018    5138.6373 
   20500    1.1146227   -5.9285475            0   -4.2569478    6.8399858    5113.1878 
   21000    1.0782447   -5.9217562            0   -4.3047126    6.4191832    5150.8946 
   21500    1.1012808   -5.9400343            0   -4.2884434    6.4683076    5137.3723 
   22000    1.0995652   -5.9498287            0   -4.3008109    6.2906955    5148.3419 
   22500    1.1009302   -5.9380869            0   -4.2870218    6.5574056    5134.5638 
   23000    1.0858244   -5.9162221            0   -4.2878112    6.6118118    5135.7997 
   23500    1.1021574   -5.9639066            0   -4.3110012    6.1698078    5153.3881 
   24000     1.090536   -5.9474035            0   -4.3119266    6.2476778    5154.0932 
   24500    1.1096744   -5.9512625            0   -4.2870839    6.5079068    5131.2059 
   25000    1.1127839   -5.9647822            0   -4.2959402    6.3728904    5139.0418 
   25500    1.1213815   -5.9548458            0   -4.2731099    6.6217824    5119.1855 
   26000    1.0980885    -5.942338            0   -4.2955347    6.4768175     5136.199 
   26500    1.0971059   -5.9395215            0   -4.2941918    6.5189656    5133.8541 
   27000    1.1075812   -5.9640048            0   -4.3029652    6.3314554    5141.1741 
   27500    1.1051161   -5.9708364            0   -4.3134938     6.197583    5148.5162 
   28000    1.0808174   -5.9222071            0   -4.3013053    6.5527801    5136.0075 
   28500    1.1133047   -5.9667615            0   -4.2971384    6.4397684    5131.1551 
   29000    1.0998945   -5.9467447            0   -4.2972328    6.5095388    5131.1095 
   29500    1.0970582   -5.9439405            0   -4.2986823    6.5296007    5130.6327 
   30000    1.1036589   -5.9481425            0   -4.2929853    6.5927144    5124.7671 
   30500    1.1104694   -5.9479979            0   -4.2826269    6.6757002    5115.9994 
   31000    1.1096256   -5.9486489            0   -4.2845434    6.7097963    5114.8555 
   31500    1.0942155   -5.9546884            0   -4.3136933    6.3706905    5139.2325 
   32000    1.1093903   -5.9618026            0     -4.29805     6.513821    5125.4388 
   32500    1.0928919   -5.9445598            0   -4.3055498    6.5268531    5129.8266 
   33000     1.101122   -5.9743588            0   -4.3230061     6.222848    5144.3755 
   33500    1.0933482   -5.9554427            0   -4.3157484    6.4233249    5137.6296 
   34000    1.0829902   -5.9427972            0   -4.3186368    6.3983812    5140.4988 
   34500    1.0901921   -5.9381454            0   -4.3031844    6.5940622    5126.3565 
   35000    1.0939916   -5.9564801            0   -4.3158209    6.4116839    5136.5554 
   35500    1.0931351   -5.9511917            0    -4.311817    6.4784349    5132.4862 
   36000    1.1145542   -5.9812714            0   -4.3097746    6.3732466    5128.4939 
   36500    1.0932661   -5.9475166            0   -4.3079455    6.5356018    5126.9308 
   37000    1.0832408   -5.9603063            0   -4.3357701    6.2161592     5149.953 
   37500    1.1013204   -5.9356402            0     -4.28399    6.8629293    5106.1072 
   38000    1.0874359    -5.956881            0   -4.3260533    6.3800983    5137.8868 
   38500    1.0967857   -5.9748521            0   -4.3300026    6.2939227    5139.5608 
   39000    1.1072984   -5.9589105            0   -4.2982951    6.6318113    5114.8979 
   39500    1.1044728   -5.9421314            0   -4.2857536    6.8247796    5104.4599 
   40000    1.0995798   -5.9431471            0   -4.2941072    6.7372969    5111.2911 
   40500    1.1084043   -5.9651161            0   -4.3028422    6.6037183    5116.6237 
   41000    1.1158798   -5.9766747            0   -4.3031897    6.5101473    5118.2065 
   41500    1.0869717   -5.9430232            0   -4.3128917    6.5938299     5123.996 
   42000    1.0923335   -5.9781432            0   -4.3399707    6.1671675    5146.9216 
   42500    1.0977368   -5.9568158            0     -4.31054    6.5960963    5120.2446 
   43000    1.0806791   -5.9662407            0   -4.3455463    6.1962897    5148.8535 
   43500    1.1090493   -5.9755326            0   -4.3122914     6.494689    5120.2233 
   44000    1.1125005   -5.9870331            0    -4.318616    6.3964821    5123.8944 
   44500    1.0953668   -5.9714669            0   -4.3287453    6.4050171    5132.3681 
   45000    1.1025138    -5.975457            0   -4.3220171    6.3897898    5128.1981 
   45500     1.096854   -5.9639254            0   -4.3189734    6.4872842      5124.61 
   46000    1.0992476   -5.9497002            0   -4.3011586    6.7570113    5109.7579 
   46500    1.0997714   -5.9810143            0   -4.3316872    6.2933435    5135.3878 
   47000    1.1006312   -5.9754812            0   -4.3248646     6.388987    5129.2683 
   47500    1.1081705   -5.9772051            0   -4.3152819    6.4485043    5122.4269 
   48000    1.1102551   -5.9855789            0   -4.3205294    6.4088765    5125.3462 
   48500    1.0860643   -5.9491841            0   -4.3204134    6.5463158    5125.2072 
   49000    1.1134454   -5.9834967            0   -4.3136627    6.4507147    5119.2827 
   49500    1.1099032   -5.9827589            0   -4.3182371    6.3914483    5123.9837 
   50000    1.1016963   -5.9627316            0   -4.3105177    6.5709414    5118.0075 
   50500    1.1050388   -5.9715158            0   -4.3142891    6.4942178     5121.518 
   51000     1.109451   -5.9813508            0   -4.3175072     6.432128    5124.6707 
   51500    1.1071417   -5.9742971            0   -4.3139167     6.483915     5121.263 
   52000    1.1192109   -5.9914633            0   -4.3129828    6.4292073    5120.7768 
   52500    1.1188481   -6.0002806            0   -4.3223442    6.2832784    5126.9379 
   53000    1.1069327   -5.9791022            0   -4.3190352    6.4352195    5124.0151 
   53500    1.1229972   -5.9905185            0   -4.3063596    6.5343225    5114.3737 
   54000    1.1105455    -5.993232            0   -4.3277468    6.2545249    5132.5801 
   54500    1.1037136   -5.9690179            0   -4.3137786    6.5277637    5119.5479 
   55000    1.1036173   -5.9706022            0   -4.3155074    6.5156349    5120.5537 
   55500    1.1114689   -5.9855335            0   -4.3186636    6.3937608    5123.5128 
   56000    1.1079945   -5.9860573            0    -4.324398    6.3715044      5126.62 
   56500    1.1223847   -5.9852858            0   -4.3020455    6.5920324     5106.307 
   57000    1.1310195   -6.0085816            0   -4.3123917    6.4282558    5114.0964 
   57500    1.1278114   -5.9932507            0   -4.3018719    6.5639865    5105.9972 
   58000     1.116817   -5.9934658            0   -4.3185754    6.4185295    5119.0336 
   58500    1.1244334   -5.9979002            0   -4.3115874    6.4949545    5113.0808 
   59000    1.1205666   -6.0034188            0   -4.3229052    6.3452412    5121.6075 
   59500    1.1240123   -6.0062608            0   -4.3205796    6.3558002    5120.9913 
   60000    1.1311362    -6.013082            0    -4.316717    6.3467731    5116.0197 
   60500    1.1220777   -5.9996614            0   -4.3168815    6.4297996    5114.6387 
   61000    1.1089245   -5.9826264            0   -4.3195722    6.5056251    5116.1522 
   61500    1.1264113   -6.0091483            0   -4.3198693    6.3718531    5116.8979 
   62000    1.1221789   -5.9780185            0   -4.2950869    6.7261818     5097.221 
   62500    1.1056534   -5.9970412            0   -4.3388928    6.2321552    5132.5601 
   63000    1.1141399    -5.994657            0   -4.3237813     6.430346    5119.0331 
   63500    1.1168379    -5.990991            0   -4.3160692    6.4852743     5113.148 
   64000    1.1137289   -5.9891354            0   -4.3188762    6.4987102    5113.2716 
   64500    1.1065024   -5.9837232            0   -4.3243015    6.5088712    5117.0303 
   65000    1.1058403   -5.9840119            0   -4.3255832    6.4614877    5119.4481 
   65500    1.0990665   -5.9881856            0   -4.3399155    6.3273488    5130.6107 
   66000    1.0962673   -5.9734584            0   -4.3293863      6.48682    5120.9201 
   66500    1.1182765   -5.9842395            0   -4.3071602    6.6835096    5100.9505 
   67000    1.1120199   -5.9916336            0   -4.3239374    6.4850863    5114.2583 
   67500    1.1214265   -5.9876957            0   -4.3058923    6.6768783    5099.5862 
   68000    1.1085125   -5.9913184            0   -4.3288823    6.4066388    5118.5021 
   68500    1.1282906   -6.0099154            0    -4.317818    6.4857239    5107.4241 
   69000    1.1012297    -5.991478            0   -4.3399639    6.3593264    5125.7015 
   69500    1.1040007   -5.9842562            0   -4.3285865    6.5040253    5114.4986 
   70000    1.1075853   -5.9782797            0   -4.3172341     6.693721    5103.7777 
   70500    1.0950929   -5.9649299            0    -4.322619    6.6956567    5107.9925 
   71000     1.099646   -5.9719075            0   -4.3227684     6.651259    5107.9873 
   71500    1.1075687   -6.0086183            0   -4.3475975    6.2486655    5129.4418 
   72000    1.1178177   -5.9967043            0   -4.3203131    6.5770678    5105.9259 
   72500    1.0958289   -5.9709796            0    -4.327565    6.6041389    5111.8906 
   73000    1.1141869   -5.9884858            0   -4.3175397    6.6464207    5104.8387 
   73500    1.0745516   -5.9568599            0   -4.3453548    6.4640846    5129.1628 
   74000    1.0941676   -5.9754353            0   -4.3345121    6.5080188    5118.5928 
   74500    1.1054479   -5.9801371            0   -4.3222968    6.6255061    5108.4366 
   75000    1.0752541   -5.9740752            0   -4.3615166    6.2860296    5140.8501 
   75500    1.1185069   -6.0054877            0   -4.3280629    6.4713588    5112.0578 
   76000    1.1015737   -6.0000817            0   -4.3480516    6.3062376    5128.3044 
   76500    1.1150996   -5.9921258            0    -4.319811     6.603241    5105.0542 
   77000    1.0930091   -5.9679657            0   -4.3287799    6.6054703    5112.2043 
   77500    1.1206429   -6.0056542            0   -4.3250259    6.4991245    5108.6185 
   78000     1.092124   -5.9899721            0   -4.3521138    6.2911176    5131.5078 
   78500    1.0954151   -5.9868489            0   -4.3440548    6.4028049    5124.4459 
   79000    1.1071517   -5.9841863            0   -4.3237909    6.6258399    5107.8214 
   79500    1.0868543    -5.982763            0   -4.3528077    6.3260837    5132.0371 
   80000    1.1090971   -5.9824658            0   -4.3191528    6.6559645    5104.9009 
   80500    1.1008189   -5.9865036            0   -4.3356054    6.4771528    5118.3912 
   81000    1.0931697   -5.9825218            0   -4.3430952    6.4195208    5124.7468 
   81500    1.0823053    -5.946688            0   -4.3235547    6.7958286     5106.176 
   82000    1.0806303   -5.9739815            0   -4.3533602    6.3839946    5129.5963 
   82500     1.085906   -5.9803126            0   -4.3517794     6.386393    5126.3293 
   83000    1.0942026   -5.9847869            0   -4.3438112    6.4873677    5118.9446 
   83500    1.1052266   -6.0005825            0   -4.3430742    6.4012057    5117.6479 
   84000    1.0905059   -5.9808594            0   -4.3454278    6.4780896    5119.1294 
   84500    1.1220922   -6.0080787            0   -4.3252771     6.556636    5102.1667 
   85000    1.1189356   -6.0167227            0    -4.338655    6.4248458    5111.3854 
   85500    1.1139143   -5.9991955            0   -4.3286582    6.5920089    5102.5489 
   86000    1.1064282   -5.9954335            0   -4.3361231    6.5243094    5108.3242 
   86500    1.1102116   -5.9952315            0   -4.3302472     6.632551     5102.318 
   87000    1.1001837   -5.9909521            0   -4.3410066    6.5559672    5112.2758 
   87500    1.1119119   -6.0103606            0   -4.3428264    6.4282628    5113.5239 
   88000    1.1205435    -5.998609            0     -4.31813     6.750813    5091.5075 
   88500    1.1141664   -5.9942551            0   -4.3233397    6.7111631    5095.7584 
   89000    1.0829323   -5.9935656            0   -4.3694921    6.2455757    5132.6719 
   89500    1.0963984   -5.9954854            0   -4.3512166    6.4068072    5117.5745 
   90000    1.1157025   -6.0214676            0   -4.3482485    6.3789724    5112.0344 
   90500    1.1031391   -5.9996754            0   -4.3452976    6.5171335    5108.2127 
   91000    1.1023773   -6.0081055            0   -4.3548702    6.4217817    5114.5242 
   91500    1.0943591   -5.9800844            0   -4.3388741    6.6767482     5101.951 
   92000    1.1040538   -6.0048579            0   -4.3491084    6.4725477    5110.1837 
   92500    1.1071564   -6.0075562            0   -4.3471538    6.4924787    5108.8166 
   93000    1.1057869   -5.9918317            0   -4.3334831     6.677887    5097.8027 
   93500    1.0956636   -6.0073026            0   -4.3641359    6.2775337    5124.7396 
   94000    1.1017836   -6.0120295            0   -4.3596846    6.3393692    5119.2056 
   94500    1.0972794   -5.9827014            0   -4.3371115    6.6987549     5099.353 
   95000    1.1110063   -6.0168894            0   -4.3507132     6.376272    5111.0072 
   95500     1.099249      -5.9849            0   -4.3363563    6.6907264    5098.8245 
   96000    1.1121132   -6.0197906            0   -4.3519545    6.3633902    5112.4288 
   96500    1.1228349   -6.0338919            0   -4.3499765    6.3034324    5110.6285 
   97000    1.1165878   -6.0125826            0   -4.3380359      6.53629    5101.5118 
   97500    1.1077158   -6.0093167            0   -4.3480753    6.4124259    5111.1094 
   98000    1.1168042   -6.0122849            0   -4.3374136     6.530754     5101.569 
   98500    1.1027076   -5.9993479            0   -4.3456173    6.5198035    5107.7996 
   99000    1.1029995    -6.011863            0   -4.3576946    6.3023698    5118.2054 
   99500    1.1067378   -6.0098114            0   -4.3500367    6.4521036    5109.8419 
  100000     1.108025   -6.0133208            0   -4.3516157    6.4545376    5110.1843 
  100500    1.0970058   -6.0116748            0   -4.3664952    6.2886597     5121.625 
  101000    1.1156344   -6.0169401            0   -4.3438231    6.5113476    5102.2298 
  101500    1.1192128   -6.0179036            0   -4.3394201    6.5603229    5097.0049 
  102000    1.1146054   -6.0223595            0   -4.3507858    6.4271766      5105.83 
  102500    1.0981407   -6.0039852            0   -4.3571036    6.4338488    5112.0031 
  103000    1.1255497   -6.0256703            0   -4.3376833    6.5510524    5094.8416 
  103500    1.0884481   -5.9926055            0   -4.3602599    6.4811037    5112.6112 
  104000    1.1196821   -6.0420497            0   -4.3628624    6.2660205    5113.1564 
  104500    1.1037043   -6.0116355            0   -4.3564103    6.4900592    5106.4361 
  105000    1.1161198   -6.0334448            0      -4.3596    6.3035948    5109.8286 
  105500    1.1184561   -6.0354882            0   -4.3581396    6.3584598    5108.3981 
  106000    1.0873211   -5.9958147            0   -4.3651593    6.4663823    5112.8116 
  106500    1.1176154   -6.0255362            0   -4.3494483    6.5080462    5098.8194 
  107000     1.109504   -6.0129612            0   -4.3490381    6.5544845    5098.2509 
  107500    1.1162948   -6.0390246            0   -4.3649172    6.3435068    5109.6483 
  108000    1.1207739   -6.0308602            0   -4.3500356    6.5249755    5097.6903 
  108500    1.1099929   -6.0245661            0   -4.3599097    6.4405278    5105.2799 
  109000    1.0957868   -6.0039778            0   -4.3606264    6.4912637    5106.6012 
  109500    1.1112609   -6.0076701            0   -4.3411122    6.7153694    5090.5232 
  110000    1.1166608   -6.0267545            0   -4.3520983    6.5227055    5099.4003 
  110500    1.1212947   -6.0356297            0    -4.354024    6.4431702    5101.2814 
  111000    1.1226124   -6.0267033            0   -4.3431215    6.5872013    5090.5362 
  111500     1.122181   -6.0389077            0   -4.3559729    6.3776433    5100.7982 
  112000    1.1218562   -6.0370838            0   -4.3546361     6.433004    5098.7363 
  112500    1.1160166    -6.005325            0   -4.3316349    6.8440241    5077.9673 
  113000    1.1160747   -6.0266743            0    -4.352897    6.5342368    5095.1074 
  113500    1.1141196   -6.0348961            0   -4.3640509    6.3920674    5104.2348 
  114000     1.124053   -6.0298175            0   -4.3440752    6.6048377    5087.4962 
  114500    1.1177048   -6.0316069            0   -4.3553851    6.4612539    5098.0196 
  115000    1.1173172   -6.0434757            0   -4.3678352    6.2982802    5107.5758 
  115500    1.1268702   -6.0441474            0   -4.3541803    6.4219942    5095.8472 
  116000     1.121149   -6.0487588            0   -4.3673716    6.2914734     5105.374 
  116500    1.1090557   -6.0213818            0    -4.358131    6.5365673    5096.8711 
  117000    1.1178442   -6.0260945            0   -4.3496635     6.594571    5089.3433 
  117500    1.1137031   -6.0287348            0   -4.3585142    6.4675829    5098.5105 
  118000    1.1027964   -6.0120459            0   -4.3581822     6.588194    5096.4869 
  118500    1.1049727   -6.0082323            0   -4.3511047    6.6556726    5090.8968 
  119000    1.1049641   -6.0364656            0    -4.379351    6.2567873    5113.5888 
  119500    1.1120473   -6.0287193            0    -4.360982    6.4938144    5096.6109 
  120000    1.1161392   -6.0167263            0   -4.3428523    6.7562736    5080.3645 
  120500    1.0981248   -6.0107603            0   -4.3639025    6.5488399    5096.8206 
  121000    1.1158602   -6.0428791            0   -4.3694236    6.3913838    5100.1019 
  121500    1.1014617   -6.0238459            0   -4.3719838    6.4810986    5101.4858 
  122000    1.0936327   -6.0300744            0   -4.3899535    6.2397035    5115.4213 
  122500    1.1236407   -6.0388227            0   -4.3536988    6.5890612    5085.0488 
  123000    1.1005645   -6.0248921            0   -4.3743755    6.4567553    5102.7361 
  123500    1.0898455   -6.0165999            0   -4.3821586    6.4038814    5109.7614 
  124000    1.1016723   -6.0246253            0   -4.3724474    6.4416326    5101.0747 
  124500    1.1182583   -6.0315401            0   -4.3544882    6.6122324    5085.0674 
  125000    1.1063419   -6.0341117            0   -4.3749308    6.4239821    5100.3831 
  125500    1.1191095     -6.02169            0   -4.3433615    6.7813671    5075.0855 
  126000     1.094337   -6.0191329            0   -4.3779556    6.4187801    5103.0842 
  126500    1.1065161   -6.0289182            0    -4.369476    6.4733177    5096.6962 
  127000      1.11731   -6.0513874            0   -4.3757576    6.3536335    5101.3883 
  127500    1.0987049   -6.0156731            0   -4.3679453    6.5765987    5094.0337 
  128000    1.1090302    -6.030605            0   -4.3673923    6.5328005    5093.3082 
  128500    1.1093501   -6.0295924            0      -4.3659    6.5211351    5092.4707 
  129000    1.1224054   -6.0185167            0   -4.3352453    6.9174321    5066.3179 
  129500     1.094814   -6.0363216            0    -4.394429    6.2297132    5114.5344 
  130000    1.1104099   -6.0320113            0   -4.3667296    6.5335936     5089.489 
  130500    1.1079155   -6.0368949            0   -4.3753541    6.4571968     5095.523 
  131000    1.1022776   -6.0497448            0    -4.396659    6.1963855    5112.4057 
  131500     1.091365   -6.0205739            0   -4.3838538     6.457327     5099.907 
  132000    1.1039851   -6.0312338            0   -4.3755874    6.5006732    5092.8363 
  132500    1.0952347   -6.0316589            0   -4.3891354    6.4069468    5102.4832 
  133000    1.1005878   -6.0583868            0   -4.4078353    6.0995536    5118.5028 
  133500    1.1014331   -6.0257211            0   -4.3739019    6.5268247    5092.7019 
  134000    1.0981793   -6.0450687            0   -4.3981293    6.2061255    5112.5339 
  134500      1.11629   -6.0400433            0   -4.3659432    6.5403503    5087.2685 
  135000    1.0896077   -6.0191328            0   -4.3850482    6.4320227    5102.9754 
  135500    1.1112307   -6.0582561            0   -4.3917434    6.1798955    5108.5487 
  136000    1.0933029   -6.0238552            0   -4.3842288    6.4640874    5101.3966 
  136500     1.103057   -6.0382228            0   -4.3839682    6.4022654     5099.592 
  137000    1.0886007   -6.0189102            0   -4.3863358    6.4568995    5100.6365 
  137500     1.088807   -6.0075884            0   -4.3747045    6.6688713    5089.3174 
  138000    1.1110911    -6.037518            0   -4.3712146     6.580301    5084.8752 
  138500    1.1019723    -6.025259            0   -4.3726312    6.6058157    5087.4568 
  139000    1.0950967   -6.0259805            0    -4.383664    6.4924274    5096.6892 
  139500    1.0953439   -6.0253927            0   -4.3827055    6.5238867    5095.1454 
  140000    1.0964988   -6.0177252            0    -4.373306     6.634605    5087.1934 
  140500    1.1088533   -6.0457003            0    -4.382753    6.4064165    5097.0869 
  141000    1.1039994   -6.0429634            0   -4.3872955    6.3462885    5101.2929 
  141500    1.0927754   -6.0180673            0   -4.3792321    6.5187687     5095.126 
  142000    1.1043056   -6.0336931            0   -4.3775659    6.5180652    5092.9579 
  142500    1.0888966   -6.0106861            0   -4.3776679    6.6480641    5091.5222 
  143000    1.0842719   -5.9998368            0   -4.3737542    6.6962914    5088.9359 
  143500    1.1121871   -6.0401211            0   -4.3721741    6.5085722    5088.3875 
  144000     1.090787   -6.0310033            0   -4.3951501    6.3388842    5107.3054 
  144500     1.113305   -6.0416987            0   -4.3720752    6.5315379    5087.8586 
  145000    1.1170495   -6.0512981            0   -4.3760589    6.4460596    5092.6155 
  145500    1.1045787   -6.0425069            0   -4.3859702    6.3532454    5101.4721 
  146000    1.0945043   -6.0339761            0    -4.392548    6.3567238    5105.7701 
  146500    1.1200265   -6.0536099            0   -4.3739062    6.4739126    5088.6057 
  147000    1.1106155   -6.0373625            0   -4.3717724    6.5608826    5087.4581 
  147500    1.0963328   -6.0348264            0   -4.3906562    6.3728845    5103.3444 
  148000    1.1224199   -6.0568086            0   -4.3735154    6.4451983    5089.1355 
  148500    1.1045866   -6.0469706            0   -4.3904221    6.3442299    5104.1449 
  149000    1.0965646   -6.0144332            0   -4.3699153    6.6370578    5086.7958 
  149500    1.0923834   -6.0280953            0   -4.3898479    6.4105935    5101.7713 
  150000    1.1212252    -6.048126            0   -4.3666246    6.5871979     5081.121 
  150500    1.1052836   -6.0360709            0   -4.3784771    6.5107451    5091.2044 
  151000    1.1008358   -6.0271783            0   -4.3762549    6.5597007    5089.4581 
  151500    1.1234143   -6.0434337            0   -4.3586493    6.6968704    5074.9134 
  152000    1.1079193   -6.0408124            0   -4.3792658    6.4710791    5092.8747 
  152500    1.1061933   -6.0315755            0   -4.3726174    6.5802514    5087.7368 
  153000    1.1039608   -6.0402067            0   -4.3845967    6.4135357    5097.6765 
  153500    1.1017825   -6.0393229            0   -4.3869797    6.4468893    5096.9164 
  154000    1.1275831   -6.0616493            0    -4.370613    6.4862196    5083.1341 
  154500    1.0985103   -6.0425579            0    -4.395122    6.3252301    5103.8015 
  155000    1.1005911   -6.0229213            0   -4.3723648    6.6654754    5083.2834 
  155500    1.0996925   -6.0383461            0   -4.3891373     6.449994    5097.5819 
  156000    1.1071085   -6.0224902            0   -4.3621596    6.7707617    5074.6017 
  156500    1.0842703   -6.0107069            0   -4.3846267    6.5888542    5093.0473 
  157000    1.1068002   -6.0509544            0   -4.3910861    6.3976515    5096.4395 
  157500    1.0940612   -6.0282662            0   -4.3875026    6.5378762    5094.1603 
  158000    1.1046722   -6.0450273            0   -4.3883504    6.4099852    5094.7538 
  158500    1.1063503   -6.0280393            0   -4.3688458    6.7145299     5076.805 
  159000    1.0882234    -6.039243            0   -4.4072344     6.320595    5107.8607 
  159500      1.10739   -6.0513364            0   -4.3905835    6.4500969    5092.7874 
  160000    1.1173086   -6.0420773            0   -4.3664496    6.6691502     5072.589 
  160500    1.1149764   -6.0471798            0   -4.3750498    6.5821528    5079.2022 
  161000     1.109612   -6.0505303            0   -4.3864451    6.4967521    5088.5981 
  161500    1.1180447   -6.0593846            0   -4.3826531    6.4735861    5086.2476 
  162000    1.0998474   -6.0363214            0   -4.3868803    6.5569726     5086.991 
  162500    1.0994197    -6.050001            0   -4.4012012    6.3765348    5098.5027 
  163000    1.1144534   -6.0580176            0   -4.3866719    6.4977083    5085.0266 
  163500    1.1076876   -6.0497683            0   -4.3885692    6.5001009    5085.9549 
  164000    1.0962389   -6.0319017            0   -4.3878722    6.6143397     5084.272 
  164500      1.08537   -6.0344347            0   -4.4067053    6.4156379    5100.2863 
  165000    1.0869627   -6.0383823            0   -4.4082644     6.356321    5102.7017 
  165500    1.0929388   -6.0219509            0   -4.3828705    6.6991792     5081.684 
  166000    1.0987861    -6.043476            0   -4.3956265    6.4775775    5092.6285 
  166500    1.0963595   -6.0338594            0    -4.389649    6.5854039    5087.3986 
  167000    1.0928363   -6.0400023            0   -4.4010756    6.3957238     5096.926 
  167500    1.0854814   -6.0242396            0   -4.3963432    6.5555922    5092.7722 
  168000     1.095999   -6.0134498            0   -4.3697801     6.910231    5070.7293 
  168500     1.091682   -6.0283182            0   -4.3911227    6.5966215    5087.5089 
  169000    1.0864034   -6.0269866            0   -4.3977074    6.5487076    5092.1656 
  169500    1.0832226   -6.0171031            0   -4.3925942    6.6650575    5085.2635 
  170000    1.0685081   -6.0251182            0   -4.4226766    6.3268083    5110.4087 
  170500    1.0825001   -6.0417188            0   -4.4182934    6.3000289    5107.3664 
  171000     1.100181   -6.0551093            0   -4.4051679    6.3680299     5095.317 
  171500    1.0790671   -6.0165539            0   -4.3982769    6.6278298    5088.7812 
  172000    1.0760263    -6.024306            0   -4.4105893    6.4890943    5099.5728 
  172500    1.0716374   -6.0125046            0   -4.4053701    6.5276027    5096.6718 
  173000    1.0974895   -6.0342129            0   -4.3883079    6.6395469    5082.9968 
  173500    1.0700843   -6.0150283            0   -4.4102228    6.5355431    5099.0066 
  174000    1.0855378   -6.0483802            0   -4.4203991    6.2644442    5106.7292 
  174500    1.0828284   -6.0368663            0   -4.4129486    6.3869666    5099.9763 
  175000    1.0762958   -6.0152268            0    -4.401106    6.6231737    5089.8339 
  175500    1.0869212   -6.0430596            0   -4.4130038    6.4494204    5097.9646 
  176000    1.0890463   -6.0352303            0   -4.4019877    6.5280939    5089.3136 
  176500     1.096337   -6.0451009            0   -4.4009243    6.5113296    5086.3583 
  177000    1.0776196   -6.0193787            0   -4.4032725    6.6522882     5088.543 
  177500    1.0563384   -6.0131614            0   -4.4289707    6.3935224    5110.5354 
  178000    1.0823534   -6.0390564            0   -4.4158511     6.380749    5099.6056 
  178500    1.0822707   -6.0214381            0   -4.3983567    6.6856524    5082.5672 
  179000    1.0874274   -6.0477054            0   -4.4168905    6.3982231    5096.0789 
  179500    1.0914957   -6.0349859            0   -4.3980699    6.6434341    5079.9901 
  180000    1.0893262   -6.0571871            0   -4.4235246    6.2861608    5100.0205 
  180500     1.092586   -6.0455183            0    -4.406967    6.5478227    5084.7479 
  181000    1.1069522   -6.0607585            0   -4.4006623    6.5227745    5078.7472 
  181500    1.0957966   -6.0547034            0   -4.4113372    6.4650484    5087.1751 
  182000    1.1004567   -6.0675723            0   -4.4172174    6.3551344    5090.4949 
  182500    1.0899828   -6.0601055            0   -4.4254584     6.334628     5096.608 
  183000    1.1201175    -6.084545            0   -4.4047048    6.4198772    5078.4154 
  183500    1.1011991   -6.0539698            0   -4.4025016    6.5803589    5075.7088 
  184000    1.0776768   -6.0321424            0   -4.4159504    6.5537023    5087.6101 
  184500    1.0838337   -6.0417293            0   -4.4163038    6.4964019    5089.1202 
  185000    1.1122941   -6.0795036            0   -4.4113962    6.3799308    5083.1137 
  185500    1.0948847   -6.0451164            0   -4.4031178    6.6187452    5075.1716 
  186000    1.1046655   -6.0719706            0   -4.4153037    6.4151351    5084.1644 
  186500    1.1088924   -6.0688511            0   -4.4058451    6.5480303    5075.6194 
  187000     1.090631   -6.0536455            0   -4.4180262    6.4677268    5086.4301 
  187500    1.0786311   -6.0229848            0   -4.4053617    6.7159508    5076.1361 
  188000    1.0870396   -6.0508814            0    -4.420648    6.4301789    5089.4994 
  188500    1.0950772   -6.0674045            0   -4.4251172    6.3240239    5092.6889 
  189000    1.1021418   -6.0555373            0   -4.4026552    6.6279292    5072.8296 
  189500    1.1127206   -6.0875428            0   -4.4187957    6.3250607    5084.8502 
  190000    1.1109116   -6.0795823            0   -4.4135481    6.3971681    5081.5984 
  190500    1.1255732   -6.0817821            0   -4.3937599     6.578871    5064.2562 
  191000    1.1038517   -6.0801658            0   -4.4247193     6.293587    5088.5016 
  191500    1.0985257   -6.0475658            0   -4.4001068    6.7442201    5066.9926 
  192000    1.0937414    -6.051465            0    -4.411181    6.6153619    5075.4875 
  192500    1.0958064   -6.0574867            0   -4.4141058    6.5050256     5079.389 
  193000    1.0994461    -6.068932            0   -4.4200926    6.4080044    5084.3625 
  193500    1.1055201   -6.0747813            0   -4.4168328    6.4679537    5080.3245 
  194000    1.0941022   -6.0472887            0   -4.4064636    6.6283954    5072.6062 
  194500    1.0813853   -6.0377138            0   -4.4159602    6.5597276      5082.05 
  195000    1.1008212   -6.0708591            0   -4.4199575    6.4056405    5084.6762 
  195500     1.115152   -6.0687703            0   -4.3963769     6.641029    5064.8972 
  196000    1.1224245   -6.0753342            0   -4.3920341    6.6624545    5060.6467 
  196500    1.1209447   -6.0785796            0   -4.3974989    6.6043269    5065.1207 
  197000    1.1064947   -6.0775479            0   -4.4181378    6.3854833    5083.3564 
  197500    1.1166316   -6.0722114            0    -4.397599    6.6269789    5064.9404 
  198000    1.1128174   -6.0826629            0   -4.4137706    6.4014131    5078.9476 
  198500    1.1060198   -6.0818549            0   -4.4231571    6.3095885    5087.1405 
  199000    1.0961394   -6.0743106            0   -4.4304304     6.288406    5091.3835 
  199500     1.087331   -6.0654328            0   -4.4347625    6.2922172    5094.5045 
  200000    1.1062012     -6.06958            0   -4.4106101    6.5192971    5073.9742 
Loop time of 799.941 on 1 procs for 200000 steps with 5000 atoms

Performance: 108008.021 tau/day, 250.019 timesteps/s
99.8% CPU use with 1 MPI tasks x no OpenMP threads

MPI task timing breakdown:
Section |  min time  |  avg time  |  max time  |%varavg| %total
---------------------------------------------------------------
Pair    | 650.72     | 650.72     | 650.72     |   0.0 | 81.35
Neigh   | 83.172     | 83.172     | 83.172     |   0.0 | 10.40
Comm    | 17.115     | 17.115     | 17.115     |   0.0 |  2.14
Output  | 1.0122     | 1.0122     | 1.0122     |   0.0 |  0.13
Modify  | 44.466     | 44.466     | 44.466     |   0.0 |  5.56
Other   |            | 3.459      |            |       |  0.43

Nlocal:        5000.00 ave        5000 max        5000 min
Histogram: 1 0 0 0 0 0 0 0 0 0
Nghost:        10471.0 ave       10471 max       10471 min
Histogram: 1 0 0 0 0 0 0 0 0 0
Neighs:        215845.0 ave      215845 max      215845 min
Histogram: 1 0 0 0 0 0 0 0 0 0

Total # of neighbors = 215845
Ave neighs/atom = 43.169000
Neighbor list builds = 10000
Dangerous builds not checked


Total wall time: 0:13:20
