units		lj
atom_style	atomic

pair_style	lj/smooth 2.5 3.0

read_data       liquid.T${temp}.rho${rho}.data
read_data       liquid.T1.5.rho${rho}.data
read_data       liquid.T1.5.rho0.61.data
Reading data file ...
  orthogonal box = (0.0000000 0.0000000 0.0000000) to (17.686748 17.686748 17.686748)
  1 by 1 by 1 MPI processor grid
  reading atoms ...
  3375 atoms
  reading velocities ...
  3375 velocities
  read_data CPU = 0.010 seconds

neighbor	0.3 bin
neigh_modify	every 20 delay 0 check no

fix		1 all nve

timestep	0.002

reset_timestep  0

compute		msd all msd
variable        msd_xyz equal c_msd[4]
variable        step0 equal step
variable        step0 equal ${step0}
variable        step0 equal 0
variable        dtime equal (step-${step0})*dt
variable        dtime equal (step-0)*dt
variable        diffus equal v_msd_xyz/(6*(v_dtime+1e-12))
thermo_style	custom step time temp ke pe etotal press c_msd[4]
thermo          50

fix             print_msd all print 50 "${dtime} ${msd_xyz} ${diffus}" file msd.T${temp}.rho${rho}.log screen no
fix             print_msd all print 50 "${dtime} ${msd_xyz} ${diffus}" file msd.T1.5.rho${rho}.log screen no
fix             print_msd all print 50 "${dtime} ${msd_xyz} ${diffus}" file msd.T1.5.rho0.61.log screen no
run		${sim_steps}
run		5000
Neighbor list info ...
  update every 20 steps, delay 0 steps, check no
  max neighbors/atom: 2000, page size: 100000
  master list distance cutoff = 3.3
  ghost atom cutoff = 3.3
  binsize = 1.65, bins = 11 11 11
  1 neighbor lists, perpetual/occasional/extra = 1 0 0
  (1) pair lj/smooth, perpetual
      attributes: half, newton on
      pair build: half/bin/atomonly/newton
      stencil: half/bin/3d
      bin: standard
Per MPI rank memory allocation (min/avg/max) = 3.544 | 3.544 | 3.544 Mbytes
Step Time Temp KinEng PotEng TotEng Press c_msd[4] 
       0            0    1.4917273     2.236928   -3.8429395   -1.6060114    1.1543051            0 
      50          0.1    1.4877587    2.2309769   -3.8375367   -1.6065598    1.1739482  0.038878189 
     100          0.2    1.4873008    2.2302902   -3.8360792   -1.6057891     1.166646   0.12268339 
     150          0.3     1.502975    2.2537945   -3.8597939   -1.6059994    1.1258144   0.21822874 
     200          0.4    1.5038822     2.255155   -3.8605466   -1.6053916    1.1052511   0.32071351 
     250          0.5    1.4949669    2.2417859    -3.847109   -1.6053231    1.1388712   0.43148638 
     300          0.6    1.5049874    2.2568121   -3.8626496   -1.6058374    1.0641436   0.55029491 
     350          0.7    1.4964785    2.2440526   -3.8495868   -1.6055342    1.0903507   0.67202692 
     400          0.8    1.5005009    2.2500845   -3.8560722   -1.6059877    1.0892258   0.79640533 
     450          0.9    1.4948381    2.2415928   -3.8473931   -1.6058003    1.1041129    0.9235314 
     500            1    1.5035007    2.2545828   -3.8604682   -1.6058853    1.0570306    1.0501957 
     550          1.1    1.5152188    2.2721548   -3.8782878    -1.606133    1.0104945    1.1824619 
     600          1.2    1.5109465    2.2657482   -3.8715101    -1.605762    1.0477716    1.3238871 
     650          1.3    1.5029882    2.2538143   -3.8601583   -1.6063441    1.1217905    1.4655654 
     700          1.4    1.4872653    2.2302369   -3.8365087   -1.6062717    1.1724629    1.6066861 
     750          1.5    1.5187389    2.2774334   -3.8838987   -1.6064654     1.031313    1.7357545 
     800          1.6    1.5090289    2.2628727   -3.8689845   -1.6061118    1.0792667    1.8644409 
     850          1.7    1.5070472     2.259901   -3.8656667   -1.6057657    1.0799039    2.0030011 
     900          1.8    1.5032757    2.2542454   -3.8598938   -1.6056484    1.1137031    2.1457097 
     950          1.9    1.4855539    2.2276705   -3.8328181   -1.6051475    1.2141924    2.2797548 
    1000            2    1.4993694    2.2483877   -3.8538802   -1.6054926    1.1591745    2.4161201 
    1050          2.1    1.5023909    2.2529186   -3.8584705   -1.6055519    1.1361712    2.5511069 
    1100          2.2      1.50624    2.2586905   -3.8645623   -1.6058718    1.0803684    2.6751992 
    1150          2.3    1.4840534    2.2254206   -3.8312598   -1.6058392    1.1573107    2.8076111 
    1200          2.4    1.5016358    2.2517863   -3.8571399   -1.6053536    1.0933578    2.9416015 
    1250          2.5    1.5052563    2.2572154   -3.8624516   -1.6052362    1.0844328    3.0699898 
    1300          2.6    1.5091842    2.2631056   -3.8683016    -1.605196    1.0277389    3.2029511 
    1350          2.7    1.4959381    2.2432423   -3.8485126   -1.6052703    1.0931015    3.3420501 
    1400          2.8    1.5098127     2.264048   -3.8693588   -1.6053108    1.0425098    3.4850076 
    1450          2.9    1.4872232    2.2301739   -3.8359454   -1.6057715    1.1703975    3.6187031 
    1500            3    1.5074188    2.2604582    -3.866389   -1.6059308    1.0386803    3.7460378 
    1550          3.1    1.5037409    2.2549431   -3.8611412   -1.6061982    1.0878081    3.8812644 
    1600          3.2    1.4865856    2.2292176   -3.8354662   -1.6062485    1.1732262    4.0170469 
    1650          3.3     1.487591    2.2307253   -3.8366857   -1.6059604    1.1623518    4.1444335 
    1700          3.4    1.4887507    2.2324644    -3.838425   -1.6059606    1.1318548    4.2694202 
    1750          3.5    1.5003875    2.2499144   -3.8557179   -1.6058035    1.0851036    4.4020735 
    1800          3.6    1.5032808     2.254253   -3.8602574   -1.6060043    1.0879231    4.5458796 
    1850          3.7    1.4847331    2.2264398   -3.8324852   -1.6060454     1.187303    4.6862416 
    1900          3.8    1.5010573    2.2509188   -3.8568116   -1.6058928     1.109863    4.8172975 
    1950          3.9    1.5149837    2.2718022     -3.87747   -1.6056678    1.0206668    4.9564079 
    2000            4    1.5150352    2.2718795   -3.8779783   -1.6060989    1.0396896    5.0931969 
    2050          4.1    1.5119664    2.2672777   -3.8732466   -1.6059689    1.0742817    5.2326587 
    2100          4.2    1.5041257      2.25552   -3.8613365   -1.6058164    1.1395702    5.3711314 
    2150          4.3     1.502642    2.2532951   -3.8594001    -1.606105    1.1507053    5.4973868 
    2200          4.4    1.4885923    2.2322268   -3.8381413   -1.6059145    1.2061566    5.6198654 
    2250          4.5    1.4843954    2.2259334   -3.8316525   -1.6057191    1.2098614    5.7511012 
    2300          4.6    1.4962243    2.2436714   -3.8493012   -1.6056298    1.1474898    5.8920588 
    2350          4.7    1.5057154    2.2579039   -3.8639691   -1.6060652    1.1127564     6.015722 
    2400          4.8    1.5034146    2.2544537   -3.8606651   -1.6062114    1.1514618    6.1431365 
    2450          4.9    1.4976243    2.2457709   -3.8519455   -1.6061747    1.1285987    6.2816853 
    2500            5    1.4909833    2.2358124   -3.8419321   -1.6061197    1.1340663    6.4204222 
    2550          5.1    1.4924066    2.2379467   -3.8435613   -1.6056147    1.1117359    6.5665424 
    2600          5.2    1.4901192    2.2345165   -3.8403467   -1.6058302    1.1641036    6.7070567 
    2650          5.3    1.4934804    2.2395568   -3.8456834   -1.6061266    1.1694001     6.836685 
    2700          5.4    1.5161935    2.2736163   -3.8793249   -1.6057086    1.0517246    6.9587374 
    2750          5.5    1.4937304    2.2399317   -3.8455133   -1.6055817    1.1646566    7.0883871 
    2800          5.6    1.4983439      2.24685   -3.8522351   -1.6053851    1.1330656    7.2353467 
    2850          5.7    1.4929317    2.2387341   -3.8439838   -1.6052497    1.1444001    7.3787789 
    2900          5.8    1.5127161    2.2684018   -3.8737272   -1.6053254    1.0451632    7.5174487 
    2950          5.9    1.4915574    2.2366733   -3.8422022   -1.6055289    1.1500012    7.6508177 
    3000            6    1.5045453    2.2561493   -3.8617761   -1.6056268    1.0506632    7.7953715 
    3050          6.1    1.4822908    2.2227775   -3.8287534   -1.6059759    1.1619153    7.9489778 
    3100          6.2     1.487573    2.2306984    -3.836079   -1.6053806    1.1255937    8.0940979 
    3150          6.3    1.4965073    2.2440958   -3.8494628    -1.605367    1.0781743     8.238676 
    3200          6.4    1.4860692    2.2284433   -3.8338279   -1.6053846    1.0959333    8.3920218 
    3250          6.5    1.5106578    2.2653152   -3.8710542    -1.605739   0.93399237    8.5483216 
    3300          6.6    1.5010254     2.250871   -3.8563803   -1.6055094   0.98178391    8.6911564 
    3350          6.7    1.4985367     2.247139   -3.8528027   -1.6056637    1.0214629    8.8237924 
    3400          6.8    1.5043614    2.2558735   -3.8609878   -1.6051144     1.012924    8.9491294 
    3450          6.9    1.4824861    2.2230703   -3.8281474   -1.6050771    1.1380491     9.072604 
    3500            7    1.4849878    2.2268217   -3.8324142   -1.6055925     1.100358    9.1988449 
    3550          7.1    1.5114559    2.2665122   -3.8717504   -1.6052382    1.0094315    9.3282787 
    3600          7.2    1.5008034    2.2505381   -3.8558853   -1.6053473    1.1149891    9.4708806 
    3650          7.3    1.4932623    2.2392298   -3.8446417   -1.6054119    1.1674941    9.6110716 
    3700          7.4    1.4764494    2.2140179   -3.8196009    -1.605583    1.1959447    9.7274767 
    3750          7.5    1.4935446     2.239653   -3.8457062   -1.6060532    1.1234254    9.8482442 
    3800          7.6    1.4965264    2.2441245   -3.8499691   -1.6058446    1.1274707    9.9748267 
    3850          7.7    1.4993572    2.2483694   -3.8538666   -1.6054973    1.1373839    10.127328 
    3900          7.8    1.5047469    2.2564516   -3.8619848   -1.6055332    1.1234104    10.293266 
    3950          7.9    1.5105643    2.2651751   -3.8708159   -1.6056408    1.1042902    10.455544 
    4000            8    1.5043271     2.255822    -3.861693    -1.605871    1.1232999    10.613799 
    4050          8.1    1.5121009    2.2674794   -3.8734373   -1.6059579    1.0678758    10.775793 
    4100          8.2    1.4806381    2.2202991   -3.8262707   -1.6059716    1.1908162    10.936897 
    4150          8.3     1.493928     2.240228   -3.8459034   -1.6056754    1.1014275    11.085104 
    4200          8.4     1.495586    2.2427142   -3.8489123   -1.6061981    1.1154959    11.219209 
    4250          8.5    1.5020677     2.252434   -3.8578376   -1.6054036    1.0739949    11.331149 
    4300          8.6    1.5006658    2.2503317   -3.8557463   -1.6054146    1.0953326    11.433604 
    4350          8.7    1.4983055    2.2467923   -3.8527099   -1.6059176    1.1175332    11.554201 
    4400          8.8    1.4796761    2.2188565   -3.8247187   -1.6058622    1.1992528    11.689069 
    4450          8.9    1.5042038    2.2556371   -3.8618809   -1.6062438    1.0984025    11.826527 
    4500            9    1.5040942    2.2554728   -3.8612852   -1.6058124    1.1007126    11.965946 
    4550          9.1    1.4957053    2.2428932   -3.8487979   -1.6059047    1.1297123    12.110008 
    4600          9.2    1.4983763    2.2468986   -3.8528334   -1.6059348    1.1199654     12.24926 
    4650          9.3    1.4954109    2.2424517   -3.8480435   -1.6055918    1.1435119    12.394268 
    4700          9.4    1.5028567    2.2536171    -3.859093   -1.6054759    1.1154038    12.543577 
    4750          9.5    1.5087725    2.2624883   -3.8680013    -1.605513    1.0758287    12.702519 
    4800          9.6    1.5019303    2.2522279   -3.8577156   -1.6054877    1.0829041    12.836492 
    4850          9.7    1.4770463     2.214913   -3.8203652   -1.6054522    1.1660755     12.97718 
    4900          9.8    1.4935629    2.2396805     -3.84545   -1.6057695    1.0701321    13.121813 
    4950          9.9    1.5009915    2.2508202   -3.8557826   -1.6049623    1.0165171    13.289393 
    5000           10    1.4955812    2.2427071   -3.8478122    -1.605105    1.0415995     13.44331 
Loop time of 16.9503 on 1 procs for 5000 steps with 3375 atoms

Performance: 50972.537 tau/day, 294.980 timesteps/s
99.8% CPU use with 1 MPI tasks x no OpenMP threads

MPI task timing breakdown:
Section |  min time  |  avg time  |  max time  |%varavg| %total
---------------------------------------------------------------
Pair    | 14.997     | 14.997     | 14.997     |   0.0 | 88.47
Neigh   | 1.5058     | 1.5058     | 1.5058     |   0.0 |  8.88
Comm    | 0.20797    | 0.20797    | 0.20797    |   0.0 |  1.23
Output  | 0.0041091  | 0.0041091  | 0.0041091  |   0.0 |  0.02
Modify  | 0.1865     | 0.1865     | 0.1865     |   0.0 |  1.10
Other   |            | 0.04938    |            |       |  0.29

Nlocal:        3375.00 ave        3375 max        3375 min
Histogram: 1 0 0 0 0 0 0 0 0 0
Nghost:        5314.00 ave        5314 max        5314 min
Histogram: 1 0 0 0 0 0 0 0 0 0
Neighs:        153823.0 ave      153823 max      153823 min
Histogram: 1 0 0 0 0 0 0 0 0 0

Total # of neighbors = 153823
Ave neighs/atom = 45.577185
Neighbor list builds = 250
Dangerous builds not checked
print           "Diffusivity estimate (MSD): ${diffus}" append msd.T${temp}.rho${rho}.log
print           "Diffusivity estimate (MSD): ${diffus}" append msd.T1.5.rho${rho}.log
print           "Diffusivity estimate (MSD): ${diffus}" append msd.T1.5.rho0.61.log
Diffusivity estimate (MSD): 0.224055161445413

write_data      liquid.T${temp}.rho${rho}.data
write_data      liquid.T1.5.rho${rho}.data
write_data      liquid.T1.5.rho0.61.data
System init for write_data ...
Total wall time: 0:00:17
