units		lj
atom_style	atomic

pair_style	lj/smooth 2.5 3.0

read_data       liquid.T${temp}.rho${rho}.data
read_data       liquid.T1.5.rho${rho}.data
read_data       liquid.T1.5.rho0.67.data
Reading data file ...
  orthogonal box = (0.0000000 0.0000000 0.0000000) to (17.142191 17.142191 17.142191)
  1 by 1 by 1 MPI processor grid
  reading atoms ...
  3375 atoms
  reading velocities ...
  3375 velocities
  read_data CPU = 0.010 seconds

neighbor	0.3 bin
neigh_modify	every 20 delay 0 check no

fix		1 all nve

timestep	0.002

reset_timestep  0

compute		msd all msd
variable        msd_xyz equal c_msd[4]
variable        step0 equal step
variable        step0 equal ${step0}
variable        step0 equal 0
variable        dtime equal (step-${step0})*dt
variable        dtime equal (step-0)*dt
variable        diffus equal v_msd_xyz/(6*(v_dtime+1e-12))
thermo_style	custom step time temp ke pe etotal press c_msd[4]
thermo          50

fix             print_msd all print 50 "${dtime} ${msd_xyz} ${diffus}" file msd.T${temp}.rho${rho}.log screen no
fix             print_msd all print 50 "${dtime} ${msd_xyz} ${diffus}" file msd.T1.5.rho${rho}.log screen no
fix             print_msd all print 50 "${dtime} ${msd_xyz} ${diffus}" file msd.T1.5.rho0.67.log screen no
run		${sim_steps}
run		5000
Neighbor list info ...
  update every 20 steps, delay 0 steps, check no
  max neighbors/atom: 2000, page size: 100000
  master list distance cutoff = 3.3
  ghost atom cutoff = 3.3
  binsize = 1.65, bins = 11 11 11
  1 neighbor lists, perpetual/occasional/extra = 1 0 0
  (1) pair lj/smooth, perpetual
      attributes: half, newton on
      pair build: half/bin/atomonly/newton
      stencil: half/bin/3d
      bin: standard
Per MPI rank memory allocation (min/avg/max) = 3.558 | 3.558 | 3.558 Mbytes
Step Time Temp KinEng PotEng TotEng Press c_msd[4] 
       0            0    1.4712086    2.2061591   -4.2023107   -1.9961516    1.6708675            0 
      50          0.1    1.4866438     2.229305   -4.2253394   -1.9960344    1.5521355  0.037560287 
     100          0.2    1.4677554    2.2009808   -4.1968129   -1.9958321    1.6511136   0.11539882 
     150          0.3    1.4895665    2.2336877   -4.2292338   -1.9955461    1.5371314   0.20170247 
     200          0.4    1.4853836    2.2274152   -4.2228958   -1.9954806    1.5614328   0.29291193 
     250          0.5    1.4996258    2.2487722   -4.2441046   -1.9953324    1.4785774   0.38716456 
     300          0.6    1.4861588    2.2285777   -4.2239058   -1.9953281     1.549141   0.48573654 
     350          0.7    1.5029965    2.2538267   -4.2494303   -1.9956036    1.4800972   0.58788608 
     400          0.8    1.4913393    2.2363461   -4.2319493   -1.9956031    1.5510195   0.69142975 
     450          0.9    1.4676435    2.2008129   -4.1965437   -1.9957308    1.6572252   0.80032871 
     500            1    1.4996164    2.2487581    -4.244388   -1.9956299    1.4801743   0.90697447 
     550          1.1    1.4885523    2.2321669   -4.2278317   -1.9956648    1.5761455    1.0135055 
     600          1.2    1.4901658    2.2345864   -4.2302503   -1.9956639    1.5703257    1.1207971 
     650          1.3    1.4841455    2.2255586   -4.2215849   -1.9960262    1.6053527    1.2229193 
     700          1.4    1.4835443     2.224657   -4.2205087   -1.9958516    1.5796004     1.327165 
     750          1.5    1.4691663    2.2030965   -4.1993999   -1.9963034    1.6517948    1.4297701 
     800          1.6    1.4871988    2.2301372   -4.2261766   -1.9960394    1.5522497    1.5292744 
     850          1.7    1.4929488    2.2387596   -4.2344296     -1.99567    1.4758691    1.6254527 
     900          1.8      1.47489    2.2116794   -4.2072278   -1.9955484    1.5451669    1.7299932 
     950          1.9    1.4903319    2.2348355   -4.2305476   -1.9957121    1.4437098    1.8395991 
    1000            2    1.4755684    2.2126968   -4.2086634   -1.9959666    1.5634186    1.9481073 
    1050          2.1    1.4825515    2.2231683   -4.2186996   -1.9955313    1.5689924    2.0542414 
    1100          2.2    1.4949639    2.2417814   -4.2375516   -1.9957701    1.5354061    2.1638124 
    1150          2.3    1.4977161    2.2459086   -4.2411448   -1.9952362    1.5107953    2.2706986 
    1200          2.4    1.4848509    2.2266164   -4.2222635   -1.9956472    1.5811113    2.3811691 
    1250          2.5    1.5010675     2.250934   -4.2465974   -1.9956634    1.4994537    2.4998946 
    1300          2.6    1.4807154    2.2204149   -4.2162539    -1.995839    1.6079467    2.6159522 
    1350          2.7    1.4904095    2.2349519   -4.2305813   -1.9956293    1.5485065    2.7204612 
    1400          2.8     1.482575    2.2232037   -4.2187066   -1.9955029    1.6004391    2.8355529 
    1450          2.9    1.4853101     2.227305   -4.2227291   -1.9954241    1.5724049    2.9555534 
    1500            3    1.4904672    2.2350384   -4.2304932   -1.9954548    1.5882803    3.0659298 
    1550          3.1    1.4956108    2.2427515   -4.2387094   -1.9959579    1.5516524    3.1787772 
    1600          3.2    1.4889412      2.23275   -4.2287155   -1.9959655    1.6124778    3.2985778 
    1650          3.3    1.4726532    2.2083253   -4.2041009   -1.9957756    1.7263013    3.4099907 
    1700          3.4    1.4702925    2.2047852    -4.200804   -1.9960188    1.6754213    3.5191215 
    1750          3.5    1.4819967    2.2223364   -4.2182519   -1.9959155    1.5670905    3.6255605 
    1800          3.6    1.4801313     2.219539   -4.2151387   -1.9955996    1.5901379    3.7419799 
    1850          3.7    1.4815769    2.2217069   -4.2168048   -1.9950979    1.5563163    3.8648058 
    1900          3.8    1.4823872     2.222922   -4.2185117   -1.9955897    1.5441978    3.9782634 
    1950          3.9    1.4787012    2.2173945   -4.2127097   -1.9953152    1.5789797    4.0836653 
    2000            4    1.5023133    2.2528023   -4.2487491   -1.9959468    1.4795997    4.1840211 
    2050          4.1    1.4838192    2.2250693   -4.2209513    -1.995882    1.5611441     4.286986 
    2100          4.2    1.4738566    2.2101298   -4.2058268    -1.995697     1.601527    4.3914086 
    2150          4.3    1.4608359    2.1906046   -4.1860976    -1.995493    1.6625135     4.496626 
    2200          4.4    1.4732022    2.2091485   -4.2047174   -1.9955689    1.5851114    4.5918202 
    2250          4.5    1.4667321    2.1994462   -4.1953691   -1.9959228    1.6136626      4.68922 
    2300          4.6     1.495233     2.242185   -4.2378523   -1.9956673    1.4812445    4.7863925 
    2350          4.7    1.4784314      2.21699   -4.2124713   -1.9954813    1.5916764    4.8869855 
    2400          4.8    1.4794606    2.2185334   -4.2140621   -1.9955286    1.5994992    4.9947914 
    2450          4.9    1.4834651    2.2245383   -4.2205835   -1.9960452    1.5417506    5.1133096 
    2500            5    1.4934995    2.2395855   -4.2353297   -1.9957443    1.4802608    5.2380954 
    2550          5.1    1.4807528    2.2204712   -4.2163485   -1.9958774    1.5697114    5.3589039 
    2600          5.2     1.482232    2.2226892   -4.2186182    -1.995929    1.5881387    5.4709936 
    2650          5.3    1.4810434    2.2209069   -4.2167041   -1.9957972    1.6434776    5.5823365 
    2700          5.4    1.4764755     2.214057   -4.2094631   -1.9954061    1.6135339     5.705698 
    2750          5.5    1.4967181     2.244412   -4.2396682   -1.9952562    1.4928165    5.8338096 
    2800          5.6    1.4751612    2.2120862   -4.2076681    -1.995582    1.6242547    5.9498063 
    2850          5.7    1.4805058    2.2201008   -4.2150758    -1.994975    1.5329497    6.0575164 
    2900          5.8    1.4728311     2.208592    -4.203899    -1.995307    1.5566618    6.1607626 
    2950          5.9     1.483808    2.2250525   -4.2203971   -1.9953447    1.5249996    6.2703261 
    3000            6    1.4829872    2.2238217   -4.2191737    -1.995352    1.5500217    6.3816611 
    3050          6.1    1.4927799    2.2385065   -4.2338626   -1.9953561    1.4967519     6.492023 
    3100          6.2    1.4845221    2.2261233   -4.2222104   -1.9960871    1.5473446     6.597587 
    3150          6.3    1.4813197    2.2213212    -4.216829   -1.9955078    1.5810077    6.7167242 
    3200          6.4    1.4727109    2.2084118   -4.2040067   -1.9955949     1.642975    6.8433953 
    3250          6.5    1.4936893    2.2398701   -4.2356189   -1.9957489    1.5258504    6.9557761 
    3300          6.6    1.4930051    2.2388441   -4.2345487   -1.9957046    1.5523065    7.0599629 
    3350          6.7    1.5054787     2.257549   -4.2532809   -1.9957319    1.5144953    7.1585137 
    3400          6.8    1.4872965    2.2302837    -4.225802   -1.9955183    1.5831363    7.2720683 
    3450          6.9    1.4871375    2.2300452    -4.225254   -1.9952087    1.5426754    7.3848562 
    3500            7    1.4890926    2.2329771   -4.2282587   -1.9952816    1.5499267    7.5044229 
    3550          7.1    1.4654197    2.1974783   -4.1928498   -1.9953715    1.6687059    7.6191169 
    3600          7.2    1.4871465    2.2300588   -4.2249122   -1.9948534    1.5263516    7.7302731 
    3650          7.3    1.4920379    2.2373937   -4.2331809   -1.9957872    1.5127181    7.8521227 
    3700          7.4    1.4931429    2.2390508   -4.2347033   -1.9956525    1.5049938    7.9857776 
    3750          7.5    1.4789988    2.2178409   -4.2131564   -1.9953155    1.6095373    8.1179612 
    3800          7.6    1.5021385    2.2525402   -4.2483959   -1.9958558    1.4889143    8.2342004 
    3850          7.7    1.4800261    2.2193814   -4.2153822   -1.9960008    1.6015011    8.3499261 
    3900          7.8    1.4793197    2.2183221   -4.2142671    -1.995945    1.6207254    8.4709257 
    3950          7.9    1.4849347    2.2267421   -4.2229622   -1.9962201    1.5622616    8.5837009 
    4000            8    1.4850928    2.2269792   -4.2229251   -1.9959459     1.565655    8.7041991 
    4050          8.1    1.4768867    2.2146736   -4.2099809   -1.9953073    1.6067832    8.8334476 
    4100          8.2    1.5010928    2.2509721   -4.2463856   -1.9954135    1.5020461    8.9549951 
    4150          8.3    1.4908011    2.2355391   -4.2316655   -1.9961264      1.57601    9.0799229 
    4200          8.4    1.4986941    2.2473751    -4.243522   -1.9961469     1.534903    9.2030219 
    4250          8.5    1.4798178    2.2190691   -4.2147682   -1.9956991     1.596124    9.3224825 
    4300          8.6    1.4719368    2.2072511   -4.2034184   -1.9961673    1.6230995    9.4440416 
    4350          8.7    1.4668585    2.1996358    -4.195707   -1.9960711    1.6533892    9.5545564 
    4400          8.8    1.4530481    2.1789264   -4.1749878   -1.9960614    1.7594844    9.6799274 
    4450          8.9    1.4637813    2.1950214   -4.1905884    -1.995567    1.6602588    9.7933752 
    4500            9    1.4725729    2.2082049   -4.2035137   -1.9953088    1.6196405    9.8989115 
    4550          9.1     1.500278    2.2497502   -4.2451756   -1.9954254    1.4508552    10.008112 
    4600          9.2    1.4891659     2.233087   -4.2288161   -1.9957291     1.485424    10.136629 
    4650          9.3    1.4748913    2.2116814   -4.2067506   -1.9950693    1.5300453     10.24781 
    4700          9.4    1.4994272    2.2484744   -4.2439265   -1.9954521    1.4012954    10.368695 
    4750          9.5    1.4802115    2.2196594   -4.2153113   -1.9956518    1.5833743    10.517735 
    4800          9.6     1.471994    2.2073368   -4.2032285   -1.9958917    1.6358229    10.663892 
    4850          9.7    1.4801482    2.2195644   -4.2148688   -1.9953044    1.5584256    10.791448 
    4900          9.8     1.477127     2.215034   -4.2111923   -1.9961583    1.5690396    10.907419 
    4950          9.9    1.4938251    2.2400738   -4.2358591   -1.9957853      1.52515    11.012169 
    5000           10     1.494542    2.2411487   -4.2368351   -1.9956864    1.5542119    11.118988 
Loop time of 18.3808 on 1 procs for 5000 steps with 3375 atoms

Performance: 47005.683 tau/day, 272.024 timesteps/s
99.8% CPU use with 1 MPI tasks x no OpenMP threads

MPI task timing breakdown:
Section |  min time  |  avg time  |  max time  |%varavg| %total
---------------------------------------------------------------
Pair    | 16.401     | 16.401     | 16.401     |   0.0 | 89.23
Neigh   | 1.5263     | 1.5263     | 1.5263     |   0.0 |  8.30
Comm    | 0.21285    | 0.21285    | 0.21285    |   0.0 |  1.16
Output  | 0.0041454  | 0.0041454  | 0.0041454  |   0.0 |  0.02
Modify  | 0.18674    | 0.18674    | 0.18674    |   0.0 |  1.02
Other   |            | 0.05011    |            |       |  0.27

Nlocal:        3375.00 ave        3375 max        3375 min
Histogram: 1 0 0 0 0 0 0 0 0 0
Nghost:        5620.00 ave        5620 max        5620 min
Histogram: 1 0 0 0 0 0 0 0 0 0
Neighs:        169049.0 ave      169049 max      169049 min
Histogram: 1 0 0 0 0 0 0 0 0 0

Total # of neighbors = 169049
Ave neighs/atom = 50.088593
Neighbor list builds = 250
Dangerous builds not checked
print           "Diffusivity estimate (MSD): ${diffus}" append msd.T${temp}.rho${rho}.log
print           "Diffusivity estimate (MSD): ${diffus}" append msd.T1.5.rho${rho}.log
print           "Diffusivity estimate (MSD): ${diffus}" append msd.T1.5.rho0.67.log
Diffusivity estimate (MSD): 0.18531647030186

write_data      liquid.T${temp}.rho${rho}.data
write_data      liquid.T1.5.rho${rho}.data
write_data      liquid.T1.5.rho0.67.data
System init for write_data ...
Total wall time: 0:00:18
