units		lj
atom_style	atomic

timestep	0.002

lattice		sc ${rho} origin 0.5 0.5 0.5
lattice		sc 0.61 origin 0.5 0.5 0.5
Lattice spacing in x,y,z = 1.1791165 1.1791165 1.1791165
region		box block 0 ${nlatt} 0 ${nlatt} 0 ${nlatt}
region		box block 0 15 0 ${nlatt} 0 ${nlatt}
region		box block 0 15 0 15 0 ${nlatt}
region		box block 0 15 0 15 0 15
create_box	1 box
Created orthogonal box = (0.0000000 0.0000000 0.0000000) to (17.686748 17.686748 17.686748)
  1 by 1 by 1 MPI processor grid
create_atoms	1 box
Created 3375 atoms
  using lattice units in orthogonal box = (0.0000000 0.0000000 0.0000000) to (17.686748 17.686748 17.686748)
  create_atoms CPU = 0.001 seconds
mass		1 1.0

velocity	all create ${temp} 87287 mom yes
velocity	all create 1.5 87287 mom yes

pair_style	lj/smooth 2.5 3.0
pair_coeff	1 1 1.0 1.0

neighbor	0.3 bin
neigh_modify	every 20 delay 0 check no

fix		1 all nve

thermo		50
run		1000
Neighbor list info ...
  update every 20 steps, delay 0 steps, check no
  max neighbors/atom: 2000, page size: 100000
  master list distance cutoff = 3.3
  ghost atom cutoff = 3.3
  binsize = 1.65, bins = 11 11 11
  1 neighbor lists, perpetual/occasional/extra = 1 0 0
  (1) pair lj/smooth, perpetual
      attributes: half, newton on
      pair build: half/bin/atomonly/newton
      stencil: half/bin/3d
      bin: standard
Per MPI rank memory allocation (min/avg/max) = 3.194 | 3.194 | 3.194 Mbytes
Step Temp E_pair E_mol TotEng Press 
       0          1.5   -4.4062983            0   -2.1569649   -2.2345396 
      50   0.98386945   -3.6043608            0   -2.1289939   0.67610415 
     100    1.2037937   -3.9180484            0   -2.1128929   0.23657935 
     150    1.2322446   -3.9536533            0   -2.1058341   0.43381162 
     200    1.2342775   -3.9551697            0    -2.104302   0.54329968 
     250    1.2384458   -3.9609212            0   -2.1038029   0.57476016 
     300    1.2481927   -3.9755615            0   -2.1038271   0.51865736 
     350    1.2493744   -3.9773573            0   -2.1038509   0.50838532 
     400    1.2523584   -3.9819393            0   -2.1039583   0.54348724 
     450    1.2465594   -3.9735063            0   -2.1042213   0.58226337 
     500    1.2462372    -3.973026            0   -2.1042241   0.55948679 
     550     1.246528   -3.9732802            0   -2.1040423   0.53567221 
     600    1.2402828    -3.964125            0   -2.1042521   0.58816883 
     650    1.2341898   -3.9547792            0    -2.104043   0.65032468 
     700    1.2417431    -3.966214            0   -2.1041511   0.61329765 
     750    1.2482533   -3.9757525            0   -2.1039273    0.5975752 
     800    1.2583346   -3.9904066            0   -2.1034639   0.52284475 
     850    1.2470943    -3.974193            0   -2.1041058   0.57707615 
     900    1.2568347   -3.9885256            0   -2.1038322   0.55892524 
     950    1.2509167   -3.9794955            0   -2.1036764   0.55135898 
    1000    1.2454465     -3.97189            0   -2.1042738   0.57956403 
Loop time of 3.33653 on 1 procs for 1000 steps with 3375 atoms

Performance: 51790.404 tau/day, 299.713 timesteps/s
99.8% CPU use with 1 MPI tasks x no OpenMP threads

MPI task timing breakdown:
Section |  min time  |  avg time  |  max time  |%varavg| %total
---------------------------------------------------------------
Pair    | 2.9529     | 2.9529     | 2.9529     |   0.0 | 88.50
Neigh   | 0.29667    | 0.29667    | 0.29667    |   0.0 |  8.89
Comm    | 0.040327   | 0.040327   | 0.040327   |   0.0 |  1.21
Output  | 0.00032397 | 0.00032397 | 0.00032397 |   0.0 |  0.01
Modify  | 0.036477   | 0.036477   | 0.036477   |   0.0 |  1.09
Other   |            | 0.009826   |            |       |  0.29

Nlocal:        3375.00 ave        3375 max        3375 min
Histogram: 1 0 0 0 0 0 0 0 0 0
Nghost:        5300.00 ave        5300 max        5300 min
Histogram: 1 0 0 0 0 0 0 0 0 0
Neighs:        153931.0 ave      153931 max      153931 min
Histogram: 1 0 0 0 0 0 0 0 0 0

Total # of neighbors = 153931
Ave neighs/atom = 45.609185
Neighbor list builds = 50
Dangerous builds not checked

fix		2 all langevin ${temp} ${temp} 0.5 7162534 zero yes
fix		2 all langevin 1.5 ${temp} 0.5 7162534 zero yes
fix		2 all langevin 1.5 1.5 0.5 7162534 zero yes

run		2000
Per MPI rank memory allocation (min/avg/max) = 3.194 | 3.194 | 3.194 Mbytes
Step Temp E_pair E_mol TotEng Press 
    1000    1.2454465     -3.97189            0   -2.1042738   0.57956403 
    1050    1.3506163   -3.9840792            0   -1.9587551   0.56477849 
    1100    1.3774897   -3.9507078            0   -1.8850855   0.70352849 
    1150    1.3952876   -3.8850517            0   -1.7927404   0.96954927 
    1200    1.4346686   -3.8911766            0   -1.7398113    0.9781229 
    1250    1.4714658    -3.898716            0   -1.6921714     0.976945 
    1300    1.4852984   -3.8678347            0   -1.6405472    1.1135477 
    1350    1.5032209   -3.8505738            0   -1.5964105    1.1567411 
    1400    1.5096192   -3.8484802            0   -1.5847223    1.1360373 
    1450    1.4844051   -3.8496419            0    -1.623694    1.0897174 
    1500     1.476615   -3.8598085            0   -1.6455423     1.078262 
    1550    1.5101083   -3.8438938            0   -1.5794025    1.1921679 
    1600    1.5099814   -3.8388073            0   -1.5745063    1.2087713 
    1650    1.4888064   -3.8503978            0   -1.6178499    1.1163117 
    1700    1.5030841   -3.8303597            0   -1.5764016    1.1827417 
    1750    1.4849657   -3.8376186            0   -1.6108301     1.161562 
    1800    1.4758299    -3.826428            0    -1.613339     1.174451 
    1850    1.4713541    -3.856276            0   -1.6498988     1.050288 
    1900    1.4692341   -3.8360833            0   -1.6328851    1.1301374 
    1950    1.4881405   -3.8242479            0   -1.5926986    1.2018012 
    2000    1.5001687   -3.8466872            0   -1.5971008    1.1383998 
    2050    1.5182199   -3.8487698            0   -1.5721146    1.1633986 
    2100    1.5165832   -3.8577192            0   -1.5835185    1.1444675 
    2150    1.5000029   -3.8519822            0   -1.6026445    1.1218295 
    2200    1.5296496   -3.8457612            0   -1.5519667    1.1370699 
    2250    1.4930584   -3.8317096            0   -1.5927856      1.19105 
    2300    1.5169701   -3.8736353            0   -1.5988543    1.0328187 
    2350    1.5017332   -3.8339414            0   -1.5820089    1.1212927 
    2400    1.5046618   -3.8443812            0   -1.5880571    1.0910478 
    2450     1.481802   -3.8245134            0   -1.6024689    1.1600134 
    2500    1.4835558   -3.8411806            0   -1.6165062    1.1578381 
    2550    1.4754811   -3.8443895            0   -1.6318237    1.1832744 
    2600    1.5125451   -3.8602839            0   -1.5921385    1.1332534 
    2650    1.4942279   -3.8437942            0   -1.6031164    1.1565481 
    2700    1.5222663   -3.8604108            0    -1.577688    1.0973042 
    2750    1.5393999    -3.855271            0   -1.5468554    1.1230813 
    2800     1.517712   -3.8331805            0    -1.557287    1.2306945 
    2850    1.4844089    -3.825308            0   -1.5993544     1.197028 
    2900    1.5049359   -3.8360113            0   -1.5792763    1.1553446 
    2950    1.4897763   -3.8248357            0   -1.5908334    1.1886998 
    3000    1.4917273   -3.8429395            0   -1.6060114    1.1543051 
Loop time of 7.0232 on 1 procs for 2000 steps with 3375 atoms

Performance: 49208.328 tau/day, 284.770 timesteps/s
99.8% CPU use with 1 MPI tasks x no OpenMP threads

MPI task timing breakdown:
Section |  min time  |  avg time  |  max time  |%varavg| %total
---------------------------------------------------------------
Pair    | 5.9507     | 5.9507     | 5.9507     |   0.0 | 84.73
Neigh   | 0.59547    | 0.59547    | 0.59547    |   0.0 |  8.48
Comm    | 0.082144   | 0.082144   | 0.082144   |   0.0 |  1.17
Output  | 0.00063488 | 0.00063488 | 0.00063488 |   0.0 |  0.01
Modify  | 0.37464    | 0.37464    | 0.37464    |   0.0 |  5.33
Other   |            | 0.01961    |            |       |  0.28

Nlocal:        3375.00 ave        3375 max        3375 min
Histogram: 1 0 0 0 0 0 0 0 0 0
Nghost:        5295.00 ave        5295 max        5295 min
Histogram: 1 0 0 0 0 0 0 0 0 0
Neighs:        153752.0 ave      153752 max      153752 min
Histogram: 1 0 0 0 0 0 0 0 0 0

Total # of neighbors = 153752
Ave neighs/atom = 45.556148
Neighbor list builds = 100
Dangerous builds not checked

write_data      liquid.T${temp}.rho${rho}.data
write_data      liquid.T1.5.rho${rho}.data
write_data      liquid.T1.5.rho0.61.data
System init for write_data ...
Total wall time: 0:00:10
