units		lj
atom_style	atomic

timestep	0.002

lattice		sc ${rho} origin 0.5 0.5 0.5
lattice		sc 0.67 origin 0.5 0.5 0.5
Lattice spacing in x,y,z = 1.1428127 1.1428127 1.1428127
region		box block 0 ${nlatt} 0 ${nlatt} 0 ${nlatt}
region		box block 0 15 0 ${nlatt} 0 ${nlatt}
region		box block 0 15 0 15 0 ${nlatt}
region		box block 0 15 0 15 0 15
create_box	1 box
Created orthogonal box = (0.0000000 0.0000000 0.0000000) to (17.142191 17.142191 17.142191)
  1 by 1 by 1 MPI processor grid
create_atoms	1 box
Created 3375 atoms
  using lattice units in orthogonal box = (0.0000000 0.0000000 0.0000000) to (17.142191 17.142191 17.142191)
  create_atoms CPU = 0.001 seconds
mass		1 1.0

velocity	all create ${temp} 87287 mom yes
velocity	all create 1.4 87287 mom yes

pair_style	lj/smooth 2.5 3.0
pair_coeff	1 1 1.0 1.0

neighbor	0.3 bin
neigh_modify	every 20 delay 0 check no

fix		1 all nve

thermo		50
run		1000
Neighbor list info ...
  update every 20 steps, delay 0 steps, check no
  max neighbors/atom: 2000, page size: 100000
  master list distance cutoff = 3.3
  ghost atom cutoff = 3.3
  binsize = 1.65, bins = 11 11 11
  1 neighbor lists, perpetual/occasional/extra = 1 0 0
  (1) pair lj/smooth, perpetual
      attributes: half, newton on
      pair build: half/bin/atomonly/newton
      stencil: half/bin/3d
      bin: standard
Per MPI rank memory allocation (min/avg/max) = 3.194 | 3.194 | 3.194 Mbytes
Step Temp E_pair E_mol TotEng Press 
       0          1.4   -4.8699617            0    -2.770584   -2.1476525 
      50   0.85668759   -4.0482243            0   -2.7635737   0.94800596 
     100      1.08038   -4.3744788            0    -2.754389   0.22910789 
     150    1.1177948   -4.4252991            0   -2.7491037   0.33481297 
     200    1.1177456   -4.4236914            0   -2.7475698   0.46148235 
     250    1.1078323   -4.4085598            0   -2.7473037   0.59329277 
     300    1.1202298   -4.4267359            0   -2.7468891   0.56233528 
     350    1.0967151   -4.3911061            0   -2.7465208   0.69579899 
     400    1.1084797   -4.4087793            0   -2.7465525   0.58045183 
     450    1.1133495   -4.4158933            0   -2.7463638   0.54809184 
     500    1.1156797   -4.4190535            0   -2.7460298   0.55178143 
     550    1.1123895   -4.4139957            0   -2.7459059   0.54460704 
     600    1.1170356   -4.4215141            0   -2.7464572   0.50246529 
     650    1.1080013   -4.4081214            0   -2.7466119   0.53651671 
     700    1.1074411    -4.407538            0   -2.7468685   0.58112336 
     750    1.1128297   -4.4155576            0   -2.7468076   0.57048905 
     800    1.1110238   -4.4129874            0   -2.7469455   0.58311937 
     850    1.1287073   -4.4393269            0   -2.7467677   0.52061968 
     900    1.1104985   -4.4120849            0   -2.7468307   0.63801422 
     950    1.1018586   -4.3990282            0     -2.74673   0.67908718 
    1000    1.1280295   -4.4384116            0   -2.7468687   0.54033068 
Loop time of 3.60894 on 1 procs for 1000 steps with 3375 atoms

Performance: 47881.098 tau/day, 277.090 timesteps/s
99.8% CPU use with 1 MPI tasks x no OpenMP threads

MPI task timing breakdown:
Section |  min time  |  avg time  |  max time  |%varavg| %total
---------------------------------------------------------------
Pair    | 3.2171     | 3.2171     | 3.2171     |   0.0 | 89.14
Neigh   | 0.30368    | 0.30368    | 0.30368    |   0.0 |  8.41
Comm    | 0.041295   | 0.041295   | 0.041295   |   0.0 |  1.14
Output  | 0.0003121  | 0.0003121  | 0.0003121  |   0.0 |  0.01
Modify  | 0.036466   | 0.036466   | 0.036466   |   0.0 |  1.01
Other   |            | 0.0101     |            |       |  0.28

Nlocal:        3375.00 ave        3375 max        3375 min
Histogram: 1 0 0 0 0 0 0 0 0 0
Nghost:        5572.00 ave        5572 max        5572 min
Histogram: 1 0 0 0 0 0 0 0 0 0
Neighs:        169281.0 ave      169281 max      169281 min
Histogram: 1 0 0 0 0 0 0 0 0 0

Total # of neighbors = 169281
Ave neighs/atom = 50.157333
Neighbor list builds = 50
Dangerous builds not checked

fix		2 all langevin ${temp} ${temp} 0.5 7162534 zero yes
fix		2 all langevin 1.4 ${temp} 0.5 7162534 zero yes
fix		2 all langevin 1.4 1.4 0.5 7162534 zero yes

run		2000
Per MPI rank memory allocation (min/avg/max) = 3.194 | 3.194 | 3.194 Mbytes
Step Temp E_pair E_mol TotEng Press 
    1000    1.1280295   -4.4384116            0   -2.7468687   0.54033068 
    1050    1.2036076   -4.4004757            0   -2.5955993    0.7465803 
    1100    1.2514079    -4.360944            0   -2.4843883    0.9430519 
    1150    1.2889681   -4.3443291            0   -2.4114498    1.0126292 
    1200    1.3106433   -4.3271016            0   -2.3617193    1.1121509 
    1250    1.3389369   -4.3117397            0   -2.3039294    1.1804103 
    1300    1.3528135   -4.3096911            0   -2.2810721     1.231971 
    1350    1.3695575   -4.3152257            0   -2.2614981    1.2144488 
    1400    1.3625552    -4.247894            0   -2.2046668    1.4633851 
    1450     1.374782   -4.2647676            0   -2.2032057     1.358253 
    1500    1.3908059   -4.2775645            0   -2.1919737    1.3211663 
    1550    1.3981429    -4.279679            0    -2.183086    1.2843398 
    1600    1.3555421   -4.2426437            0    -2.209933    1.3894778 
    1650    1.4066715   -4.2943685            0   -2.1849865    1.2355596 
    1700    1.3821688   -4.2394843            0   -2.1668454    1.4469417 
    1750    1.3794173   -4.2416888            0   -2.1731759    1.4577836 
    1800     1.391441   -4.2603034            0   -2.1737603    1.4386842 
    1850    1.4061083   -4.2750057            0   -2.1664681    1.3728145 
    1900    1.4084676   -4.2766261            0   -2.1645508    1.2870915 
    1950    1.3441898   -4.2319474            0   -2.2162601    1.3764582 
    2000     1.379641   -4.2543335            0   -2.1854852    1.3178585 
    2050    1.3912887   -4.2578423            0   -2.1715276    1.3180759 
    2100    1.3797748   -4.2622543            0   -2.1932053    1.2827899 
    2150    1.3454128   -4.2464552            0    -2.228934    1.3358918 
    2200    1.3836539    -4.270326            0     -2.19546    1.2877692 
    2250    1.3778708   -4.2581002            0   -2.1919065    1.3145077 
    2300    1.4091538   -4.2893903            0   -2.1762859    1.2089984 
    2350    1.4051218   -4.2682315            0   -2.1611734     1.278905 
    2400    1.3944521     -4.29412            0   -2.2030616    1.1525681 
    2450    1.3865144   -4.2812288            0   -2.2020735    1.2458523 
    2500    1.3539733   -4.2349545            0   -2.2045963    1.4442367 
    2550    1.3732978   -4.2429615            0   -2.1836251    1.4212702 
    2600    1.3978443   -4.2472802            0   -2.1511351    1.4003671 
    2650    1.3818847   -4.2460092            0   -2.1737964    1.3595982 
    2700    1.4284154   -4.2525185            0   -2.1105302    1.3661084 
    2750    1.4253651   -4.2482315            0   -2.1108174    1.3644362 
    2800    1.4370494   -4.2521445            0   -2.0972091    1.3535845 
    2850    1.4183557   -4.2643738            0   -2.1374706    1.3535815 
    2900    1.3955701   -4.2462873            0   -2.1535523    1.4224604 
    2950    1.3817324   -4.2501871            0   -2.1782027    1.3899726 
    3000    1.4018462   -4.2756494            0   -2.1735031     1.287015 
Loop time of 7.60781 on 1 procs for 2000 steps with 3375 atoms

Performance: 45427.010 tau/day, 262.888 timesteps/s
99.8% CPU use with 1 MPI tasks x no OpenMP threads

MPI task timing breakdown:
Section |  min time  |  avg time  |  max time  |%varavg| %total
---------------------------------------------------------------
Pair    | 6.5183     | 6.5183     | 6.5183     |   0.0 | 85.68
Neigh   | 0.61055    | 0.61055    | 0.61055    |   0.0 |  8.03
Comm    | 0.084212   | 0.084212   | 0.084212   |   0.0 |  1.11
Output  | 0.00065037 | 0.00065037 | 0.00065037 |   0.0 |  0.01
Modify  | 0.37399    | 0.37399    | 0.37399    |   0.0 |  4.92
Other   |            | 0.02014    |            |       |  0.26

Nlocal:        3375.00 ave        3375 max        3375 min
Histogram: 1 0 0 0 0 0 0 0 0 0
Nghost:        5553.00 ave        5553 max        5553 min
Histogram: 1 0 0 0 0 0 0 0 0 0
Neighs:        168904.0 ave      168904 max      168904 min
Histogram: 1 0 0 0 0 0 0 0 0 0

Total # of neighbors = 168904
Ave neighs/atom = 50.045630
Neighbor list builds = 100
Dangerous builds not checked

write_data      liquid.T${temp}.rho${rho}.data
write_data      liquid.T1.4.rho${rho}.data
write_data      liquid.T1.4.rho0.67.data
System init for write_data ...
Total wall time: 0:00:11
