units		lj
atom_style	atomic

timestep	0.002

lattice		sc ${rho} origin 0.5 0.5 0.5
lattice		sc 0.67 origin 0.5 0.5 0.5
Lattice spacing in x,y,z = 1.1428127 1.1428127 1.1428127
region		box block 0 ${nlatt} 0 ${nlatt} 0 ${nlatt}
region		box block 0 15 0 ${nlatt} 0 ${nlatt}
region		box block 0 15 0 15 0 ${nlatt}
region		box block 0 15 0 15 0 15
create_box	1 box
Created orthogonal box = (0.0000000 0.0000000 0.0000000) to (17.142191 17.142191 17.142191)
  1 by 1 by 1 MPI processor grid
create_atoms	1 box
Created 3375 atoms
  using lattice units in orthogonal box = (0.0000000 0.0000000 0.0000000) to (17.142191 17.142191 17.142191)
  create_atoms CPU = 0.001 seconds
mass		1 1.0

velocity	all create ${temp} 87287 mom yes
velocity	all create 1.5 87287 mom yes

pair_style	lj/smooth 2.5 3.0
pair_coeff	1 1 1.0 1.0

neighbor	0.3 bin
neigh_modify	every 20 delay 0 check no

fix		1 all nve

thermo		50
run		1000
Neighbor list info ...
  update every 20 steps, delay 0 steps, check no
  max neighbors/atom: 2000, page size: 100000
  master list distance cutoff = 3.3
  ghost atom cutoff = 3.3
  binsize = 1.65, bins = 11 11 11
  1 neighbor lists, perpetual/occasional/extra = 1 0 0
  (1) pair lj/smooth, perpetual
      attributes: half, newton on
      pair build: half/bin/atomonly/newton
      stencil: half/bin/3d
      bin: standard
Per MPI rank memory allocation (min/avg/max) = 3.194 | 3.194 | 3.194 Mbytes
Step Temp E_pair E_mol TotEng Press 
       0          1.5   -4.8699617            0   -2.6206284   -2.0806723 
      50   0.93438478   -4.0142593            0   -2.6130974    1.1478961 
     100    1.1600341   -4.3432826            0   -2.6037471   0.44318149 
     150    1.1924381   -4.3869677            0   -2.5988405   0.56838251 
     200    1.1908703   -4.3832004            0   -2.5974242   0.68673485 
     250    1.1751268    -4.359537            0    -2.597369   0.83278686 
     300    1.1996405   -4.3957802            0   -2.5968526   0.74046595 
     350    1.1739094   -4.3568708            0   -2.5965285   0.87970518 
     400    1.1872378   -4.3768495            0   -2.5965204   0.76766583 
     450     1.188015   -4.3780106            0   -2.5965161   0.75589703 
     500    1.1985003   -4.3933158            0   -2.5960981   0.73076492 
     550    1.1970721   -4.3915108            0   -2.5964346   0.72234643 
     600    1.1779492   -4.3628694            0   -2.5964691   0.79858109 
     650    1.1768971   -4.3612592            0   -2.5964366   0.79876091 
     700    1.1933731   -4.3863222            0   -2.5967929   0.72426352 
     750    1.1776066   -4.3624381            0   -2.5965516   0.80855987 
     800    1.1866775   -4.3761162            0   -2.5966274   0.75446184 
     850    1.1925207   -4.3850238            0   -2.5967728   0.73374765 
     900    1.2029546   -4.4009917            0   -2.5970944   0.71754171 
     950    1.1919698    -4.384318            0    -2.596893   0.76544759 
    1000     1.198004    -4.393007            0   -2.5965335   0.71585848 
Loop time of 3.61281 on 1 procs for 1000 steps with 3375 atoms

Performance: 47829.803 tau/day, 276.793 timesteps/s
99.8% CPU use with 1 MPI tasks x no OpenMP threads

MPI task timing breakdown:
Section |  min time  |  avg time  |  max time  |%varavg| %total
---------------------------------------------------------------
Pair    | 3.223      | 3.223      | 3.223      |   0.0 | 89.21
Neigh   | 0.30201    | 0.30201    | 0.30201    |   0.0 |  8.36
Comm    | 0.041164   | 0.041164   | 0.041164   |   0.0 |  1.14
Output  | 0.0003265  | 0.0003265  | 0.0003265  |   0.0 |  0.01
Modify  | 0.036187   | 0.036187   | 0.036187   |   0.0 |  1.00
Other   |            | 0.01009    |            |       |  0.28

Nlocal:        3375.00 ave        3375 max        3375 min
Histogram: 1 0 0 0 0 0 0 0 0 0
Nghost:        5548.00 ave        5548 max        5548 min
Histogram: 1 0 0 0 0 0 0 0 0 0
Neighs:        168878.0 ave      168878 max      168878 min
Histogram: 1 0 0 0 0 0 0 0 0 0

Total # of neighbors = 168878
Ave neighs/atom = 50.037926
Neighbor list builds = 50
Dangerous builds not checked

fix		2 all langevin ${temp} ${temp} 0.5 7162534 zero yes
fix		2 all langevin 1.5 ${temp} 0.5 7162534 zero yes
fix		2 all langevin 1.5 1.5 0.5 7162534 zero yes

run		2000
Per MPI rank memory allocation (min/avg/max) = 3.194 | 3.194 | 3.194 Mbytes
Step Temp E_pair E_mol TotEng Press 
    1000     1.198004    -4.393007            0   -2.5965335   0.71585848 
    1050    1.2836773   -4.3559254            0     -2.43098   0.92385599 
    1100    1.3327275   -4.3141577            0   -2.3156588     1.113418 
    1150    1.3678493   -4.2837388            0   -2.2325728    1.2413101 
    1200    1.3968413   -4.2705345            0   -2.1758934    1.3272537 
    1250    1.4446232   -4.2501992            0   -2.0839065    1.4345732 
    1300    1.4366815   -4.2406741            0   -2.0862904    1.4577859 
    1350     1.461245   -4.2232921            0    -2.032074     1.537404 
    1400    1.4873589   -4.2219826            0   -1.9916052    1.6017704 
    1450    1.5223488   -4.2289638            0   -1.9461172    1.5812365 
    1500    1.5155021   -4.2200777            0   -1.9474981    1.6062016 
    1550     1.527504   -4.2100638            0   -1.9194867    1.6355642 
    1600    1.5398337   -4.2054837            0   -1.8964175     1.635891 
    1650    1.5442969   -4.2278092            0   -1.9120502    1.5555101 
    1700    1.5017687   -4.1916257            0   -1.9396402    1.6392518 
    1750    1.5032754    -4.244938            0    -1.990693    1.4894598 
    1800    1.4725751   -4.2633267            0   -2.0551186    1.4275464 
    1850     1.475965   -4.2490887            0   -2.0357972    1.4994189 
    1900    1.4704324    -4.246589            0    -2.041594    1.5141529 
    1950    1.4552812   -4.2228242            0   -2.0405491    1.5838161 
    2000    1.4556278   -4.2308087            0    -2.048014    1.4982503 
    2050    1.4556359   -4.2148509            0   -2.0320441    1.5082203 
    2100    1.4964632   -4.2561036            0   -2.0120738    1.3483279 
    2150    1.4713041   -4.2417383            0    -2.035436    1.4143945 
    2200    1.4624719   -4.2522658            0    -2.059208     1.383828 
    2250    1.4495761   -4.2308326            0   -2.0571127    1.4580139 
    2300    1.4485398   -4.2223725            0   -2.0502066     1.537683 
    2350    1.4521127   -4.2044169            0   -2.0268931    1.6125227 
    2400    1.4530357   -4.2125031            0   -2.0335953     1.537458 
    2450     1.451921   -4.2155024            0   -2.0382661    1.5593458 
    2500    1.4884264   -4.2185976            0   -1.9866196    1.5564122 
    2550    1.4570559   -4.2154238            0   -2.0304875    1.5413817 
    2600    1.4784811     -4.22809            0   -2.0110254    1.4884973 
    2650    1.4618894   -4.2255715            0   -2.0333872    1.5014883 
    2700    1.5120809   -4.2135219            0   -1.9460726    1.5690723 
    2750    1.5182295   -4.2242218            0   -1.9475522    1.5744573 
    2800    1.4962996   -4.2246728            0   -1.9808884    1.5344548 
    2850    1.4631718   -4.2086284            0    -2.014521    1.5577125 
    2900    1.4543282   -4.2014433            0   -2.0205974    1.6055596 
    2950    1.4616172   -4.2266878            0   -2.0349116    1.5757992 
    3000    1.4712086   -4.2023107            0   -1.9961516    1.6708675 
Loop time of 7.61546 on 1 procs for 2000 steps with 3375 atoms

Performance: 45381.391 tau/day, 262.624 timesteps/s
99.8% CPU use with 1 MPI tasks x no OpenMP threads

MPI task timing breakdown:
Section |  min time  |  avg time  |  max time  |%varavg| %total
---------------------------------------------------------------
Pair    | 6.5291     | 6.5291     | 6.5291     |   0.0 | 85.74
Neigh   | 0.60781    | 0.60781    | 0.60781    |   0.0 |  7.98
Comm    | 0.084101   | 0.084101   | 0.084101   |   0.0 |  1.10
Output  | 0.00063051 | 0.00063051 | 0.00063051 |   0.0 |  0.01
Modify  | 0.37361    | 0.37361    | 0.37361    |   0.0 |  4.91
Other   |            | 0.02017    |            |       |  0.26

Nlocal:        3375.00 ave        3375 max        3375 min
Histogram: 1 0 0 0 0 0 0 0 0 0
Nghost:        5558.00 ave        5558 max        5558 min
Histogram: 1 0 0 0 0 0 0 0 0 0
Neighs:        168931.0 ave      168931 max      168931 min
Histogram: 1 0 0 0 0 0 0 0 0 0

Total # of neighbors = 168931
Ave neighs/atom = 50.053630
Neighbor list builds = 100
Dangerous builds not checked

write_data      liquid.T${temp}.rho${rho}.data
write_data      liquid.T1.5.rho${rho}.data
write_data      liquid.T1.5.rho0.67.data
System init for write_data ...
Total wall time: 0:00:11
