units		lj
atom_style	atomic

pair_style	lj/smooth 2.5 3.0

read_data       liquid.T${temp}.rho${rho}.data
read_data       liquid.T1.4.rho${rho}.data
read_data       liquid.T1.4.rho0.64.data
Reading data file ...
  orthogonal box = (0.0000000 0.0000000 0.0000000) to (17.405958 17.405958 17.405958)
  1 by 1 by 1 MPI processor grid
  reading atoms ...
  3375 atoms
  reading velocities ...
  3375 velocities
  read_data CPU = 0.010 seconds

neighbor	0.3 bin
neigh_modify	every 20 delay 0 check no

fix		1 all nve

timestep	0.002

reset_timestep  0

compute		msd all msd
variable        msd_xyz equal c_msd[4]
variable        step0 equal step
variable        step0 equal ${step0}
variable        step0 equal 0
variable        dtime equal (step-${step0})*dt
variable        dtime equal (step-0)*dt
variable        diffus equal v_msd_xyz/(6*(v_dtime+1e-12))
thermo_style	custom step time temp ke pe etotal press c_msd[4]
thermo          50

fix             print_msd all print 50 "${dtime} ${msd_xyz} ${diffus}" file msd.T${temp}.rho${rho}.log screen no
fix             print_msd all print 50 "${dtime} ${msd_xyz} ${diffus}" file msd.T1.4.rho${rho}.log screen no
fix             print_msd all print 50 "${dtime} ${msd_xyz} ${diffus}" file msd.T1.4.rho0.64.log screen no
run		${sim_steps}
run		5000
Neighbor list info ...
  update every 20 steps, delay 0 steps, check no
  max neighbors/atom: 2000, page size: 100000
  master list distance cutoff = 3.3
  ghost atom cutoff = 3.3
  binsize = 1.65, bins = 11 11 11
  1 neighbor lists, perpetual/occasional/extra = 1 0 0
  (1) pair lj/smooth, perpetual
      attributes: half, newton on
      pair build: half/bin/atomonly/newton
      stencil: half/bin/3d
      bin: standard
Per MPI rank memory allocation (min/avg/max) = 3.550 | 3.550 | 3.550 Mbytes
Step Time Temp KinEng PotEng TotEng Press c_msd[4] 
       0            0    1.3721613    2.0576321   -4.0700436   -2.0124114    1.0959002            0 
      50          0.1    1.3997358    2.0989816   -4.1114306    -2.012449   0.95183892  0.036024122 
     100          0.2    1.3737023    2.0599429   -4.0726764   -2.0127335    1.0972771   0.11222323 
     150          0.3    1.3757931    2.0630783   -4.0754121   -2.0123338     1.110477   0.19788905 
     200          0.4    1.3893472    2.0834033   -4.0955581   -2.0121547    1.0298481   0.28763556 
     250          0.5    1.3787148    2.0674594   -4.0799418   -2.0124824    1.0842537   0.38103528 
     300          0.6    1.4031867    2.1041564   -4.1170544    -2.012898   0.99053742   0.47826044 
     350          0.7    1.3782782    2.0668048   -4.0800964   -2.0132916    1.1527772   0.57678066 
     400          0.8    1.3704221    2.0550241   -4.0682054   -2.0131813     1.211406   0.68047288 
     450          0.9     1.388694    2.0824239   -4.0949769    -2.012553    1.0678079   0.78300349 
     500            1    1.3769546    2.0648198   -4.0770467   -2.0122268    1.0739079   0.88549187 
     550          1.1    1.3717695    2.0570445   -4.0697809   -2.0127363    1.1223586   0.98759152 
     600          1.2    1.3802537     2.069767   -4.0822622   -2.0124951    1.0745031    1.0841829 
     650          1.3    1.3806231    2.0703211    -4.083119   -2.0127979    1.0490264    1.1840925 
     700          1.4    1.3774932    2.0656275   -4.0786814   -2.0130538     1.067636    1.2886485 
     750          1.5    1.3828437     2.073651   -4.0862425   -2.0125915    1.0537371     1.398404 
     800          1.6     1.393581    2.0897521    -4.102023   -2.0122709   0.99982545      1.50545 
     850          1.7    1.3713072    2.0563514   -4.0687112   -2.0123599    1.0637551    1.6093274 
     900          1.8    1.3881898    2.0816677   -4.0939002   -2.0122325   0.97508434    1.7206562 
     950          1.9    1.3833852    2.0744629   -4.0872371   -2.0127741     1.063587    1.8305608 
    1000            2       1.3893    2.0833325   -4.0957786   -2.0124461    1.0789533    1.9411948 
    1050          2.1    1.3860928    2.0785231   -4.0909753   -2.0124522    1.1079727    2.0509346 
    1100          2.2    1.3926653    2.0883789    -4.100914    -2.012535    1.0923116    2.1597913 
    1150          2.3    1.3954858    2.0926085   -4.1055855    -2.012977     1.063545    2.2694387 
    1200          2.4    1.3912124    2.0862003   -4.0988252    -2.012625    1.0161348    2.3721799 
    1250          2.5    1.3876283    2.0808258   -4.0939079   -2.0130822    1.0139002    2.4879027 
    1300          2.6    1.3801007    2.0695377   -4.0825032   -2.0129655      1.06019    2.6071457 
    1350          2.7    1.3906565    2.0853666   -4.0978826    -2.012516    1.0380896    2.7209919 
    1400          2.8    1.3792208    2.0682182   -4.0810874   -2.0128692    1.1123279    2.8355068 
    1450          2.9    1.3893268    2.0833726   -4.0962721   -2.0128994     1.037274    2.9435018 
    1500            3    1.3734074    2.0595007    -4.072186   -2.0126852    1.1308929    3.0550142 
    1550          3.1    1.3919027    2.0872355   -4.1000237   -2.0127882   0.97181698    3.1657148 
    1600          3.2    1.3740224     2.060423   -4.0733301   -2.0129071    1.0581368    3.2766224 
    1650          3.3    1.3818867    2.0722158    -4.084935   -2.0127191    1.0224536    3.3910472 
    1700          3.4    1.3973196    2.0953584    -4.108103   -2.0127446   0.93480825    3.5044453 
    1750          3.5    1.3788203    2.0676176   -4.0804228   -2.0128053    1.0672455    3.6194035 
    1800          3.6    1.3946149    2.0913026   -4.1045734   -2.0132708     1.023234    3.7444338 
    1850          3.7    1.3869279    2.0797754    -4.092659   -2.0128836    1.1044135    3.8694776 
    1900          3.8     1.387319    2.0803618    -4.093051   -2.0126892    1.0883605    3.9946373 
    1950          3.9     1.394359    2.0909188   -4.1037094   -2.0127906   0.99909587    4.1137201 
    2000            4    1.3789114    2.0677543   -4.0805915   -2.0128372    1.0732971    4.2308894 
    2050          4.1    1.3959985    2.0933773   -4.1062393    -2.012862    1.0055942    4.3482255 
    2100          4.2    1.3962904     2.093815    -4.107063   -2.0132481    1.0223525    4.4616425 
    2150          4.3    1.3970211    2.0949107   -4.1080267    -2.013116    1.0334746    4.5791523 
    2200          4.4    1.3722141    2.0577113   -4.0707332   -2.0130219    1.1771007    4.6846572 
    2250          4.5    1.3944854    2.0911084   -4.1040519   -2.0129435    1.0737759    4.8020631 
    2300          4.6    1.4015757    2.1017406   -4.1151616    -2.013421    1.0536265    4.9211734 
    2350          4.7    1.3944059    2.0909892   -4.1037699   -2.0127807    1.0430325    5.0309184 
    2400          4.8    1.3859232    2.0782688   -4.0911484   -2.0128796    1.0661004    5.1395481 
    2450          4.9    1.3821629      2.07263   -4.0854721    -2.012842    1.0821269    5.2507404 
    2500            5    1.3728225    2.0586236   -4.0712682   -2.0126446    1.1470895    5.3796277 
    2550          5.1    1.3823895    2.0729698   -4.0852575   -2.0122877    1.1218011    5.5104506 
    2600          5.2    1.3814132    2.0715058   -4.0846766   -2.0131708    1.1240838    5.6355499 
    2650          5.3    1.3789806    2.0678581    -4.080607    -2.012749    1.0717818    5.7663025 
    2700          5.4    1.3942974    2.0908264   -4.1032536   -2.0124272   0.96171238    5.8870673 
    2750          5.5    1.3844754    2.0760978   -4.0888895   -2.0127917    1.0355508    6.0125202 
    2800          5.6    1.3901277    2.0845737   -4.0975374   -2.0129637      1.01653    6.1311649 
    2850          5.7    1.4046582    2.1063631   -4.1189695   -2.0126065   0.98857086    6.2544229 
    2900          5.8    1.3751745    2.0621505   -4.0747909   -2.0126403    1.1474026    6.3684767 
    2950          5.9    1.3770587     2.064976   -4.0773876   -2.0124116    1.0588719    6.4866455 
    3000            6    1.3811764    2.0711508   -4.0831679   -2.0120171    1.0396939    6.6054711 
    3050          6.1    1.3798709    2.0691931   -4.0820711   -2.0128781    1.0940639    6.7275934 
    3100          6.2    1.3820152    2.0724086   -4.0849727   -2.0125641     1.092301    6.8447869 
    3150          6.3    1.3669206    2.0497734   -4.0623136   -2.0125402    1.1359897    6.9689003 
    3200          6.4    1.3932876    2.0893122   -4.1017596   -2.0124474   0.99574477    7.0805297 
    3250          6.5    1.3858775    2.0782002   -4.0907086   -2.0125084    1.0543622    7.1955436 
    3300          6.6    1.3816976    2.0719324   -4.0841234    -2.012191    1.0698645    7.3149442 
    3350          6.7    1.3843286    2.0758776   -4.0883687    -2.012491    1.1042955    7.4304099 
    3400          6.8    1.3807207    2.0704674   -4.0828103   -2.0123429    1.1114368    7.5390297 
    3450          6.9    1.3904691    2.0850857    -4.097618   -2.0125324    1.0157661    7.6406962 
    3500            7    1.3785307    2.0671834   -4.0794943   -2.0123109    1.0485825    7.7420559 
    3550          7.1    1.3847051    2.0764422   -4.0890695   -2.0126273    1.0197178    7.8428361 
    3600          7.2    1.3910382     2.085939    -4.098313    -2.012374    1.0380016    7.9541251 
    3650          7.3    1.4059541    2.1083062   -4.1208336   -2.0125273   0.99489607    8.0901363 
    3700          7.4    1.3759185    2.0632662   -4.0761644   -2.0128982    1.1055407    8.2328911 
    3750          7.5    1.3941372    2.0905861   -4.1030554   -2.0124692   0.97400633    8.3509063 
    3800          7.6    1.4048922    2.1067139   -4.1191419    -2.012428   0.92458139    8.4748145 
    3850          7.7    1.3899085     2.084245   -4.0971109   -2.0128659    1.0467396    8.6043038 
    3900          7.8    1.4025605    2.1032174   -4.1154094    -2.012192   0.98326205    8.7322877 
    3950          7.9    1.3850523    2.0769629   -4.0893114   -2.0123485    1.0883812    8.8634799 
    4000            8    1.3950444    2.0919466   -4.1047407   -2.0127942     1.051158    8.9707677 
    4050          8.1    1.3881058    2.0815417   -4.0943412   -2.0127995     1.046718    9.0835245 
    4100          8.2    1.3821067    2.0725458   -4.0853011   -2.0127553    1.0524112    9.2142337 
    4150          8.3    1.4101266    2.1145632   -4.1270978   -2.0125346   0.94646096    9.3454522 
    4200          8.4    1.3828564      2.07367   -4.0861411   -2.0124711    1.0804587    9.4763141 
    4250          8.5    1.3853116    2.0773517   -4.0901681   -2.0128164    1.0458949    9.6021541 
    4300          8.6    1.3968363    2.0946337   -4.1078362   -2.0132026   0.97754116    9.7028898 
    4350          8.7     1.391315    2.0863541   -4.0990622   -2.0127081      1.01945     9.818664 
    4400          8.8    1.3794341    2.0685381   -4.0814854   -2.0129474    1.0503132     9.935243 
    4450          8.9    1.3800953    2.0695296   -4.0823888   -2.0128592    1.0285489    10.050946 
    4500            9    1.3703172    2.0548668   -4.0681035   -2.0132367    1.0896691    10.164179 
    4550          9.1    1.4063456    2.1088934   -4.1218649   -2.0129716   0.89757072    10.282558 
    4600          9.2    1.3739653    2.0603373   -4.0728201   -2.0124827    1.0931683    10.405964 
    4650          9.3    1.3813818    2.0714587   -4.0842525   -2.0127938    1.0653646      10.5396 
    4700          9.4    1.3876056    2.0807916   -4.0934082   -2.0126166     1.027125    10.640266 
    4750          9.5    1.3851387    2.0770924   -4.0895195   -2.0124271    1.0401134    10.733646 
    4800          9.6    1.3774601    2.0655779   -4.0782724   -2.0126945    1.0434174    10.837122 
    4850          9.7    1.3706852    2.0554186   -4.0677898   -2.0123712    1.0945553    10.960067 
    4900          9.8    1.3814454    2.0715541   -4.0837231   -2.0121691    1.0242965    11.079082 
    4950          9.9    1.4069069    2.1097351   -4.1222967   -2.0125616   0.91167858    11.199862 
    5000           10    1.3723796    2.0579595   -4.0706472   -2.0126877    1.0769056    11.312105 
Loop time of 17.638 on 1 procs for 5000 steps with 3375 atoms

Performance: 48985.222 tau/day, 283.479 timesteps/s
99.8% CPU use with 1 MPI tasks x no OpenMP threads

MPI task timing breakdown:
Section |  min time  |  avg time  |  max time  |%varavg| %total
---------------------------------------------------------------
Pair    | 15.676     | 15.676     | 15.676     |   0.0 | 88.88
Neigh   | 1.5115     | 1.5115     | 1.5115     |   0.0 |  8.57
Comm    | 0.20988    | 0.20988    | 0.20988    |   0.0 |  1.19
Output  | 0.0040991  | 0.0040991  | 0.0040991  |   0.0 |  0.02
Modify  | 0.18662    | 0.18662    | 0.18662    |   0.0 |  1.06
Other   |            | 0.05007    |            |       |  0.28

Nlocal:        3375.00 ave        3375 max        3375 min
Histogram: 1 0 0 0 0 0 0 0 0 0
Nghost:        5481.00 ave        5481 max        5481 min
Histogram: 1 0 0 0 0 0 0 0 0 0
Neighs:        161518.0 ave      161518 max      161518 min
Histogram: 1 0 0 0 0 0 0 0 0 0

Total # of neighbors = 161518
Ave neighs/atom = 47.857185
Neighbor list builds = 250
Dangerous builds not checked
print           "Diffusivity estimate (MSD): ${diffus}" append msd.T${temp}.rho${rho}.log
print           "Diffusivity estimate (MSD): ${diffus}" append msd.T1.4.rho${rho}.log
print           "Diffusivity estimate (MSD): ${diffus}" append msd.T1.4.rho0.64.log
Diffusivity estimate (MSD): 0.188535080514853

write_data      liquid.T${temp}.rho${rho}.data
write_data      liquid.T1.4.rho${rho}.data
write_data      liquid.T1.4.rho0.64.data
System init for write_data ...
Total wall time: 0:00:17
