shell           rm log.vacf.T${temp}.rho${rho}.txt
shell           rm log.vacf.T1.4.rho${rho}.txt
shell           rm log.vacf.T1.4.rho0.67.txt
WARNING: Shell command 'rm' failed with error 'No such file or directory' (../input.cpp:1234)
units		lj
atom_style	atomic

variable        loop_counter loop ${loop_iterations}
variable        loop_counter loop 25
variable        diff_accum equal 0

label           loop
clear

pair_style	lj/smooth 2.5 3.0

read_data       liquid.T${temp}.rho${rho}.data
read_data       liquid.T1.4.rho${rho}.data
read_data       liquid.T1.4.rho0.67.data
Reading data file ...
  orthogonal box = (0.0000000 0.0000000 0.0000000) to (17.142191 17.142191 17.142191)
  1 by 1 by 1 MPI processor grid
  reading atoms ...
  3375 atoms
  reading velocities ...
  3375 velocities
  read_data CPU = 0.010 seconds

neighbor	0.3 bin
neigh_modify	every 20 delay 0 check no

fix		1 all nve
timestep        0.002
thermo		50

reset_timestep  0
compute         myVACF all vacf

fix             fixVACF all vector 1 c_myVACF[4]
variable        diff_integ equal dt*trap(f_fixVACF)
variable        curVACF equal c_myVACF[4]

variable        step0 equal step
variable        step0 equal $(v_step0)
variable        step0 equal 0
variable        dtime equal (step-${step0})*dt
variable        dtime equal (step-0)*dt
fix             print_vacf all print 2 "${dtime} ${curVACF} ${diff_integ}" append log.vacf.T${temp}.rho${rho}.txt screen no
fix             print_vacf all print 2 "${dtime} ${curVACF} ${diff_integ}" append log.vacf.T1.4.rho${rho}.txt screen no
fix             print_vacf all print 2 "${dtime} ${curVACF} ${diff_integ}" append log.vacf.T1.4.rho0.67.txt screen no
thermo_style	custom step time temp ke pe etotal press

run             ${loop_length}
run             2500
Neighbor list info ...
  update every 20 steps, delay 0 steps, check no
  max neighbors/atom: 2000, page size: 100000
  master list distance cutoff = 3.3
  ghost atom cutoff = 3.3
  binsize = 1.65, bins = 11 11 11
  1 neighbor lists, perpetual/occasional/extra = 1 0 0
  (1) pair lj/smooth, perpetual
      attributes: half, newton on
      pair build: half/bin/atomonly/newton
      stencil: half/bin/3d
      bin: standard
Per MPI rank memory allocation (min/avg/max) = 3.559 | 3.559 | 3.559 Mbytes
Step Time Temp KinEng PotEng TotEng Press 
       0            0    1.3862653    2.0787819   -4.2521128   -2.1733309    1.4010169 
      50          0.1    1.3839155    2.0752582   -4.2487862   -2.1735281    1.4477842 
     100          0.2    1.4002637    2.0997732   -4.2734522    -2.173679    1.3316897 
     150          0.3    1.3878769    2.0811985   -4.2541569   -2.1729584    1.4054529 
     200          0.4      1.38118    2.0711561    -4.244141   -2.1729849    1.4437675 
     250          0.5    1.3893398    2.0833922   -4.2561307   -2.1727385    1.3849001 
     300          0.6    1.3944885     2.091113   -4.2639148   -2.1728017    1.3187676 
     350          0.7    1.3909335    2.0857821    -4.258689   -2.1729069    1.3403934 
     400          0.8    1.3866488    2.0793569   -4.2523697   -2.1730128    1.3756968 
     450          0.9    1.3992902    2.0983134   -4.2711682   -2.1728549    1.2659826 
     500            1    1.3964672    2.0940802   -4.2666729   -2.1725927    1.2885503 
     550          1.1    1.4074147    2.1104966    -4.282819   -2.1723224    1.2210028 
     600          1.2    1.4101628    2.1146175   -4.2870847   -2.1724672    1.2394868 
     650          1.3    1.3954997    2.0926294   -4.2653846   -2.1727553    1.3441337 
     700          1.4    1.4082311    2.1117208   -4.2844571   -2.1727363     1.285825 
     750          1.5    1.3913141    2.0863527   -4.2589689   -2.1726162     1.343117 
     800          1.6    1.3755419    2.0627015    -4.235654   -2.1729525    1.4498137 
     850          1.7    1.3782124    2.0667061   -4.2399687   -2.1732626    1.4719178 
     900          1.8    1.3938498    2.0901551   -4.2633897   -2.1732345    1.3882549 
     950          1.9    1.4009164     2.100752   -4.2735181   -2.1727661     1.303837 
    1000            2    1.3930226    2.0889148   -4.2618103   -2.1728956    1.3549493 
    1050          2.1    1.3896914    2.0839194   -4.2566901   -2.1727707    1.3807097 
    1100          2.2    1.3965019    2.0941322   -4.2670808   -2.1729486    1.3587328 
    1150          2.3    1.3898481    2.0841544   -4.2567402   -2.1725857    1.3765629 
    1200          2.4    1.3891849    2.0831599   -4.2561088   -2.1729489    1.3503698 
    1250          2.5    1.3807687    2.0705394   -4.2437912   -2.1732518    1.4077122 
    1300          2.6    1.3936148    2.0898028    -4.262986   -2.1731833    1.3413668 
    1350          2.7     1.377769    2.0660412   -4.2389094   -2.1728682    1.4385957 
    1400          2.8    1.3899684    2.0843348   -4.2572559   -2.1729211    1.3681962 
    1450          2.9    1.3826932    2.0734253   -4.2463055   -2.1728802    1.3840141 
    1500            3    1.3887499    2.0825076   -4.2551133   -2.1726057    1.3541188 
    1550          3.1    1.3783613    2.0669293   -4.2395818   -2.1726524    1.3900143 
    1600          3.2    1.3872897     2.080318   -4.2526279   -2.1723099    1.3296721 
    1650          3.3    1.4040417    2.1054386   -4.2781177    -2.172679    1.2673157 
    1700          3.4    1.3914653    2.0865796   -4.2595551   -2.1729755     1.316903 
    1750          3.5    1.3899648    2.0843294   -4.2574165   -2.1730871    1.3693128 
    1800          3.6    1.3952186    2.0922079   -4.2654779     -2.17327    1.3598788 
    1850          3.7    1.3999037    2.0992333   -4.2723939   -2.1731606    1.3356698 
    1900          3.8    1.4053066    2.1073353   -4.2809761   -2.1736408    1.3086611 
    1950          3.9    1.3599372    2.0393014   -4.2125561   -2.1732547    1.5225896 
    2000            4    1.3954204    2.0925104   -4.2653347   -2.1728243    1.3571477 
    2050          4.1    1.4038014    2.1050782   -4.2782539   -2.1731757    1.2883121 
    2100          4.2    1.3988986    2.0977262   -4.2708285   -2.1731023    1.2865172 
    2150          4.3     1.393717    2.0899561   -4.2623642   -2.1724082    1.3187494 
    2200          4.4    1.3839649    2.0753323    -4.248372   -2.1730397    1.3377135 
    2250          4.5    1.3928431    2.0886456   -4.2612088   -2.1725632    1.3603305 
    2300          4.6    1.4015848    2.1017542   -4.2744237   -2.1726695    1.3556106 
    2350          4.7    1.3828588    2.0736737   -4.2470139   -2.1733403    1.4062135 
    2400          4.8    1.3979506    2.0963046   -4.2689963   -2.1726917    1.3279572 
    2450          4.9    1.3859462    2.0783033   -4.2511636   -2.1728603    1.3934006 
    2500            5      1.39262    2.0883111   -4.2615321    -2.173221    1.3573327 
Loop time of 9.23215 on 1 procs for 2500 steps with 3375 atoms

Performance: 46792.982 tau/day, 270.793 timesteps/s
99.8% CPU use with 1 MPI tasks x no OpenMP threads

MPI task timing breakdown:
Section |  min time  |  avg time  |  max time  |%varavg| %total
---------------------------------------------------------------
Pair    | 8.1656     | 8.1656     | 8.1656     |   0.0 | 88.45
Neigh   | 0.7674     | 0.7674     | 0.7674     |   0.0 |  8.31
Comm    | 0.10506    | 0.10506    | 0.10506    |   0.0 |  1.14
Output  | 0.00081642 | 0.00081642 | 0.00081642 |   0.0 |  0.01
Modify  | 0.16766    | 0.16766    | 0.16766    |   0.0 |  1.82
Other   |            | 0.02565    |            |       |  0.28

Nlocal:        3375.00 ave        3375 max        3375 min
Histogram: 1 0 0 0 0 0 0 0 0 0
Nghost:        5605.00 ave        5605 max        5605 min
Histogram: 1 0 0 0 0 0 0 0 0 0
Neighs:        169205.0 ave      169205 max      169205 min
Histogram: 1 0 0 0 0 0 0 0 0 0

Total # of neighbors = 169205
Ave neighs/atom = 50.134815
Neighbor list builds = 125
Dangerous builds not checked
variable        diff_accum equal ${diff_accum}+${diff_integ}/(3*${loop_iterations})
variable        diff_accum equal 0+${diff_integ}/(3*${loop_iterations})
variable        diff_accum equal 0+0.561481064758896/(3*${loop_iterations})
variable        diff_accum equal 0+0.561481064758896/(3*25)
unfix           fixVACF
write_data      liquid.T${temp}.rho${rho}.data
write_data      liquid.T1.4.rho${rho}.data
write_data      liquid.T1.4.rho0.67.data
System init for write_data ...
print           "" append log.vacf.T${temp}.rho${rho}.txt screen no
print           "" append log.vacf.T1.4.rho${rho}.txt screen no
print           "" append log.vacf.T1.4.rho0.67.txt screen no

next            loop_counter
jump            SELF loop
clear

pair_style	lj/smooth 2.5 3.0

read_data       liquid.T${temp}.rho${rho}.data
read_data       liquid.T1.4.rho${rho}.data
read_data       liquid.T1.4.rho0.67.data
Reading data file ...
  orthogonal box = (0.0000000 0.0000000 0.0000000) to (17.142191 17.142191 17.142191)
  1 by 1 by 1 MPI processor grid
  reading atoms ...
  3375 atoms
  reading velocities ...
  3375 velocities
  read_data CPU = 0.009 seconds

neighbor	0.3 bin
neigh_modify	every 20 delay 0 check no

fix		1 all nve
timestep        0.002
thermo		50

reset_timestep  0
compute         myVACF all vacf

fix             fixVACF all vector 1 c_myVACF[4]
variable        diff_integ equal dt*trap(f_fixVACF)
variable        curVACF equal c_myVACF[4]

variable        step0 equal step
variable        step0 equal $(v_step0)
variable        step0 equal 0
variable        dtime equal (step-${step0})*dt
variable        dtime equal (step-0)*dt
fix             print_vacf all print 2 "${dtime} ${curVACF} ${diff_integ}" append log.vacf.T${temp}.rho${rho}.txt screen no
fix             print_vacf all print 2 "${dtime} ${curVACF} ${diff_integ}" append log.vacf.T1.4.rho${rho}.txt screen no
fix             print_vacf all print 2 "${dtime} ${curVACF} ${diff_integ}" append log.vacf.T1.4.rho0.67.txt screen no
thermo_style	custom step time temp ke pe etotal press

run             ${loop_length}
run             2500
Neighbor list info ...
  update every 20 steps, delay 0 steps, check no
  max neighbors/atom: 2000, page size: 100000
  master list distance cutoff = 3.3
  ghost atom cutoff = 3.3
  binsize = 1.65, bins = 11 11 11
  1 neighbor lists, perpetual/occasional/extra = 1 0 0
  (1) pair lj/smooth, perpetual
      attributes: half, newton on
      pair build: half/bin/atomonly/newton
      stencil: half/bin/3d
      bin: standard
Per MPI rank memory allocation (min/avg/max) = 3.556 | 3.556 | 3.556 Mbytes
Step Time Temp KinEng PotEng TotEng Press 
       0            0      1.39262    2.0883111   -4.2615321    -2.173221    1.3573327 
      50          0.1    1.3796655    2.0688851   -4.2421773   -2.1732922    1.4354955 
     100          0.2    1.3887925    2.0825715    -4.255691   -2.1731196    1.3648018 
     150          0.3    1.4044059    2.1059847   -4.2787533   -2.1727687    1.2476946 
     200          0.4    1.3898711    2.0841889   -4.2565987   -2.1724098    1.3798594 
     250          0.5    1.4115892    2.1167564   -4.2899037   -2.1731472    1.2562667 
     300          0.6    1.3921027    2.0875353   -4.2604977   -2.1729624    1.3415258 
     350          0.7    1.3954907    2.0926159   -4.2655098    -2.172894    1.3155485 
     400          0.8    1.3663535     2.048923    -4.221667   -2.1727441    1.4622622 
     450          0.9     1.406764    2.1095207   -4.2826857    -2.173165    1.2844697 
     500            1    1.3937966    2.0900754   -4.2627892   -2.1727139    1.3763093 
     550          1.1     1.400045    2.0994452   -4.2724155   -2.1729703    1.3343382 
     600          1.2    1.3945223    2.0911637   -4.2641613   -2.1729976    1.3401854 
     650          1.3    1.3934587    2.0895687   -4.2626239   -2.1730552    1.3463067 
     700          1.4    1.4048996     2.106725   -4.2796496   -2.1729246    1.2605888 
     750          1.5    1.4090504    2.1129494   -4.2856201   -2.1726707    1.2397638 
     800          1.6    1.3871534    2.0801136   -4.2532771   -2.1731636      1.34567 
     850          1.7    1.3689377    2.0527981   -4.2260783   -2.1732802    1.4352615 
     900          1.8    1.4036016    2.1047785   -4.2776613   -2.1728828    1.2440265 
     950          1.9     1.399483    2.0986024   -4.2711805    -2.172578    1.2956866 
    1000            2     1.410663    2.1153675   -4.2880746    -2.172707    1.2070848 
    1050          2.1    1.4114191    2.1165013   -4.2890325   -2.1725312    1.1968428 
    1100          2.2    1.3698774    2.0542073   -4.2273079   -2.1731006    1.4015838 
    1150          2.3    1.4036927    2.1049152   -4.2778322    -2.172917    1.2410112 
    1200          2.4    1.3646595    2.0463827   -4.2190528   -2.1726702    1.4479902 
    1250          2.5     1.384657    2.0763701   -4.2490009   -2.1726308     1.367918 
    1300          2.6    1.4060749    2.1084874   -4.2807864   -2.1722991    1.2455773 
    1350          2.7    1.4009396    2.1007867    -4.273459   -2.1726723    1.3120972 
    1400          2.8    1.4118809    2.1171939   -4.2895957   -2.1724018    1.2653395 
    1450          2.9    1.3772111    2.0652045    -4.237875   -2.1726704    1.4169899 
    1500            3    1.3779299    2.0662825   -4.2389458   -2.1726633    1.4110032 
    1550          3.1    1.3939615    2.0903228    -4.263373   -2.1730502    1.2922891 
    1600          3.2    1.4047485    2.1064983   -4.2797825   -2.1732842    1.2572334 
    1650          3.3    1.3836871    2.0749157   -4.2479253   -2.1730096    1.3724356 
    1700          3.4    1.4044772    2.1060916   -4.2784493   -2.1723577    1.2573125 
    1750          3.5    1.3739984    2.0603869   -4.2331901   -2.1728032    1.4335245 
    1800          3.6    1.3905777    2.0852485   -4.2581695    -2.172921    1.3344079 
    1850          3.7    1.3969418    2.0947918   -4.2675023   -2.1727105    1.2884538 
    1900          3.8     1.389148    2.0831046   -4.2558244   -2.1727198    1.3501514 
    1950          3.9    1.3900025     2.084386   -4.2571207   -2.1727348    1.3484597 
    2000            4    1.3923085     2.087844   -4.2606553   -2.1728113    1.2992327 
    2050          4.1     1.387968    2.0813351    -4.254404   -2.1730689    1.3030432 
    2100          4.2    1.4044871    2.1061065   -4.2789164   -2.1728099     1.253877 
    2150          4.3    1.3821308    2.0725819   -4.2453558   -2.1727739    1.3488883 
    2200          4.4    1.4006701    2.1003826   -4.2730121   -2.1726295    1.2629714 
    2250          4.5    1.3778357    2.0661412   -4.2390423   -2.1729011    1.4270464 
    2300          4.6    1.3891502    2.0831078    -4.256288   -2.1731802    1.3857403 
    2350          4.7    1.3987243    2.0974649   -4.2706621   -2.1731972    1.3520409 
    2400          4.8    1.4111749    2.1161352   -4.2898642    -2.173729    1.2847107 
    2450          4.9    1.4047334    2.1064757   -4.2800416   -2.1735659    1.3087828 
    2500            5    1.3936447    2.0898476    -4.263045   -2.1731974    1.3863795 
Loop time of 9.4623 on 1 procs for 2500 steps with 3375 atoms

Performance: 45654.864 tau/day, 264.206 timesteps/s
99.8% CPU use with 1 MPI tasks x no OpenMP threads

MPI task timing breakdown:
Section |  min time  |  avg time  |  max time  |%varavg| %total
---------------------------------------------------------------
Pair    | 8.3942     | 8.3942     | 8.3942     |   0.0 | 88.71
Neigh   | 0.76907    | 0.76907    | 0.76907    |   0.0 |  8.13
Comm    | 0.10572    | 0.10572    | 0.10572    |   0.0 |  1.12
Output  | 0.00080513 | 0.00080513 | 0.00080513 |   0.0 |  0.01
Modify  | 0.16725    | 0.16725    | 0.16725    |   0.0 |  1.77
Other   |            | 0.02524    |            |       |  0.27

Nlocal:        3375.00 ave        3375 max        3375 min
Histogram: 1 0 0 0 0 0 0 0 0 0
Nghost:        5546.00 ave        5546 max        5546 min
Histogram: 1 0 0 0 0 0 0 0 0 0
Neighs:        169213.0 ave      169213 max      169213 min
Histogram: 1 0 0 0 0 0 0 0 0 0

Total # of neighbors = 169213
Ave neighs/atom = 50.137185
Neighbor list builds = 125
Dangerous builds not checked
variable        diff_accum equal ${diff_accum}+${diff_integ}/(3*${loop_iterations})
variable        diff_accum equal 0.00748641419678528+${diff_integ}/(3*${loop_iterations})
variable        diff_accum equal 0.00748641419678528+0.552620883464015/(3*${loop_iterations})
variable        diff_accum equal 0.00748641419678528+0.552620883464015/(3*25)
unfix           fixVACF
write_data      liquid.T${temp}.rho${rho}.data
write_data      liquid.T1.4.rho${rho}.data
write_data      liquid.T1.4.rho0.67.data
System init for write_data ...
print           "" append log.vacf.T${temp}.rho${rho}.txt screen no
print           "" append log.vacf.T1.4.rho${rho}.txt screen no
print           "" append log.vacf.T1.4.rho0.67.txt screen no

next            loop_counter
jump            SELF loop
clear

pair_style	lj/smooth 2.5 3.0

read_data       liquid.T${temp}.rho${rho}.data
read_data       liquid.T1.4.rho${rho}.data
read_data       liquid.T1.4.rho0.67.data
Reading data file ...
  orthogonal box = (0.0000000 0.0000000 0.0000000) to (17.142191 17.142191 17.142191)
  1 by 1 by 1 MPI processor grid
  reading atoms ...
  3375 atoms
  reading velocities ...
  3375 velocities
  read_data CPU = 0.009 seconds

neighbor	0.3 bin
neigh_modify	every 20 delay 0 check no

fix		1 all nve
timestep        0.002
thermo		50

reset_timestep  0
compute         myVACF all vacf

fix             fixVACF all vector 1 c_myVACF[4]
variable        diff_integ equal dt*trap(f_fixVACF)
variable        curVACF equal c_myVACF[4]

variable        step0 equal step
variable        step0 equal $(v_step0)
variable        step0 equal 0
variable        dtime equal (step-${step0})*dt
variable        dtime equal (step-0)*dt
fix             print_vacf all print 2 "${dtime} ${curVACF} ${diff_integ}" append log.vacf.T${temp}.rho${rho}.txt screen no
fix             print_vacf all print 2 "${dtime} ${curVACF} ${diff_integ}" append log.vacf.T1.4.rho${rho}.txt screen no
fix             print_vacf all print 2 "${dtime} ${curVACF} ${diff_integ}" append log.vacf.T1.4.rho0.67.txt screen no
thermo_style	custom step time temp ke pe etotal press

run             ${loop_length}
run             2500
Neighbor list info ...
  update every 20 steps, delay 0 steps, check no
  max neighbors/atom: 2000, page size: 100000
  master list distance cutoff = 3.3
  ghost atom cutoff = 3.3
  binsize = 1.65, bins = 11 11 11
  1 neighbor lists, perpetual/occasional/extra = 1 0 0
  (1) pair lj/smooth, perpetual
      attributes: half, newton on
      pair build: half/bin/atomonly/newton
      stencil: half/bin/3d
      bin: standard
Per MPI rank memory allocation (min/avg/max) = 3.559 | 3.559 | 3.559 Mbytes
Step Time Temp KinEng PotEng TotEng Press 
       0            0    1.3936447    2.0898476    -4.263045   -2.1731974    1.3863795 
      50          0.1    1.4068657    2.1096732   -4.2824336   -2.1727603    1.3329757 
     100          0.2    1.3898715    2.0841895   -4.2572603   -2.1730708    1.4289994 
     150          0.3    1.3818488    2.0721591   -4.2455208   -2.1733617    1.4649202 
     200          0.4    1.4046174    2.1063018   -4.2795718     -2.17327     1.335668 
     250          0.5    1.3930824    2.0890045   -4.2621655   -2.1731611    1.4026275 
     300          0.6     1.387699    2.0809317   -4.2540009   -2.1730692    1.4047354 
     350          0.7    1.3977244    2.0959654   -4.2694345   -2.1734691    1.3127232 
     400          0.8    1.3823314    2.0728827   -4.2464213   -2.1735386    1.4340881 
     450          0.9    1.3982047    2.0966857   -4.2695933   -2.1729076    1.3455749 
     500            1    1.4038391    2.1051347   -4.2779045   -2.1727697    1.3254317 
     550          1.1    1.3864265    2.0790235   -4.2520047   -2.1729812    1.4003737 
     600          1.2     1.383191    2.0741717   -4.2466908   -2.1725191    1.4185388 
     650          1.3    1.3986703    2.0973838   -4.2701417   -2.1727578    1.3711657 
     700          1.4    1.4065072    2.1091357   -4.2823675   -2.1732318    1.3443142 
     750          1.5    1.3916916    2.0869189   -4.2600234   -2.1731044    1.4024115 
     800          1.6    1.3968232    2.0946139   -4.2678614   -2.1732475    1.3318061 
     850          1.7    1.4140179    2.1203984   -4.2934258   -2.1730275    1.2636801 
     900          1.8    1.3981118    2.0965462   -4.2697562   -2.1732099    1.3389863 
     950          1.9    1.3833974    2.0744812   -4.2475835   -2.1731023      1.39249 
    1000            2     1.394008    2.0903925   -4.2636434   -2.1732509    1.3573108 
    1050          2.1    1.4075613    2.1107164   -4.2835981   -2.1728817    1.3061229 
    1100          2.2    1.3931565    2.0891156    -4.261872   -2.1727564    1.3594248 
    1150          2.3    1.3870161    2.0799077   -4.2524794   -2.1725717    1.3390905 
    1200          2.4    1.4116989    2.1169209   -4.2895499   -2.1726289    1.2389807 
    1250          2.5    1.3801372    2.0695925   -4.2422198   -2.1726273    1.4138767 
    1300          2.6     1.386053    2.0784634   -4.2510473   -2.1725839    1.3601421 
    1350          2.7    1.4045411    2.1061875   -4.2792822   -2.1730947    1.2448736 
    1400          2.8    1.3910076    2.0858931   -4.2589309   -2.1730377    1.3422777 
    1450          2.9    1.4019514     2.102304   -4.2753572   -2.1730531    1.2765244 
    1500            3    1.3827176    2.0734618   -4.2466224   -2.1731606    1.4022956 
    1550          3.1    1.3780378    2.0664443   -4.2396257   -2.1731814    1.4374807 
    1600          3.2    1.3986482    2.0973507     -4.27027   -2.1729193    1.3476563 
    1650          3.3     1.387279    2.0803019   -4.2531134   -2.1728115    1.4456935 
    1700          3.4    1.4021996    2.1026762   -4.2757165   -2.1730403    1.3165953 
    1750          3.5    1.4022818    2.1027995   -4.2754309   -2.1726314    1.2894056 
    1800          3.6     1.385472    2.0775923   -4.2504783   -2.1728861    1.4136526 
    1850          3.7    1.3984227    2.0970125   -4.2699266   -2.1729141    1.3543576 
    1900          3.8    1.4042491    2.1057496    -4.278578   -2.1728284    1.2843686 
    1950          3.9    1.4002648    2.0997748   -4.2729911   -2.1732162    1.3243892 
    2000            4    1.3930222    2.0889142   -4.2617943   -2.1728801    1.3688263 
    2050          4.1    1.3962307    2.0937255   -4.2669053   -2.1731798    1.3414635 
    2100          4.2    1.3840989    2.0755332   -4.2485966   -2.1730634    1.4016424 
    2150          4.3    1.4035468    2.1046964   -4.2770451   -2.1723487    1.2846598 
    2200          4.4    1.3868458    2.0796523   -4.2529011   -2.1732489    1.3870622 
    2250          4.5    1.3921248    2.0875684   -4.2605745   -2.1730061    1.3447293 
    2300          4.6     1.392705    2.0884384   -4.2617178   -2.1732793    1.3608725 
    2350          4.7    1.3848589    2.0766729   -4.2495902   -2.1729173    1.4245522 
    2400          4.8    1.3938956     2.090224   -4.2627898   -2.1725658    1.4019714 
    2450          4.9    1.3982669     2.096779   -4.2696147   -2.1728357    1.3610975 
    2500            5    1.3955894    2.0927639   -4.2659229    -2.173159    1.3854834 
Loop time of 9.23506 on 1 procs for 2500 steps with 3375 atoms

Performance: 46778.248 tau/day, 270.707 timesteps/s
99.7% CPU use with 1 MPI tasks x no OpenMP threads

MPI task timing breakdown:
Section |  min time  |  avg time  |  max time  |%varavg| %total
---------------------------------------------------------------
Pair    | 8.177      | 8.177      | 8.177      |   0.0 | 88.54
Neigh   | 0.76272    | 0.76272    | 0.76272    |   0.0 |  8.26
Comm    | 0.10372    | 0.10372    | 0.10372    |   0.0 |  1.12
Output  | 0.00080154 | 0.00080154 | 0.00080154 |   0.0 |  0.01
Modify  | 0.16539    | 0.16539    | 0.16539    |   0.0 |  1.79
Other   |            | 0.02545    |            |       |  0.28

Nlocal:        3375.00 ave        3375 max        3375 min
Histogram: 1 0 0 0 0 0 0 0 0 0
Nghost:        5570.00 ave        5570 max        5570 min
Histogram: 1 0 0 0 0 0 0 0 0 0
Neighs:        169209.0 ave      169209 max      169209 min
Histogram: 1 0 0 0 0 0 0 0 0 0

Total # of neighbors = 169209
Ave neighs/atom = 50.136000
Neighbor list builds = 125
Dangerous builds not checked
variable        diff_accum equal ${diff_accum}+${diff_integ}/(3*${loop_iterations})
variable        diff_accum equal 0.0148546926429721+${diff_integ}/(3*${loop_iterations})
variable        diff_accum equal 0.0148546926429721+0.481545640430881/(3*${loop_iterations})
variable        diff_accum equal 0.0148546926429721+0.481545640430881/(3*25)
unfix           fixVACF
write_data      liquid.T${temp}.rho${rho}.data
write_data      liquid.T1.4.rho${rho}.data
write_data      liquid.T1.4.rho0.67.data
System init for write_data ...
print           "" append log.vacf.T${temp}.rho${rho}.txt screen no
print           "" append log.vacf.T1.4.rho${rho}.txt screen no
print           "" append log.vacf.T1.4.rho0.67.txt screen no

next            loop_counter
jump            SELF loop
clear

pair_style	lj/smooth 2.5 3.0

read_data       liquid.T${temp}.rho${rho}.data
read_data       liquid.T1.4.rho${rho}.data
read_data       liquid.T1.4.rho0.67.data
Reading data file ...
  orthogonal box = (0.0000000 0.0000000 0.0000000) to (17.142191 17.142191 17.142191)
  1 by 1 by 1 MPI processor grid
  reading atoms ...
  3375 atoms
  reading velocities ...
  3375 velocities
  read_data CPU = 0.009 seconds

neighbor	0.3 bin
neigh_modify	every 20 delay 0 check no

fix		1 all nve
timestep        0.002
thermo		50

reset_timestep  0
compute         myVACF all vacf

fix             fixVACF all vector 1 c_myVACF[4]
variable        diff_integ equal dt*trap(f_fixVACF)
variable        curVACF equal c_myVACF[4]

variable        step0 equal step
variable        step0 equal $(v_step0)
variable        step0 equal 0
variable        dtime equal (step-${step0})*dt
variable        dtime equal (step-0)*dt
fix             print_vacf all print 2 "${dtime} ${curVACF} ${diff_integ}" append log.vacf.T${temp}.rho${rho}.txt screen no
fix             print_vacf all print 2 "${dtime} ${curVACF} ${diff_integ}" append log.vacf.T1.4.rho${rho}.txt screen no
fix             print_vacf all print 2 "${dtime} ${curVACF} ${diff_integ}" append log.vacf.T1.4.rho0.67.txt screen no
thermo_style	custom step time temp ke pe etotal press

run             ${loop_length}
run             2500
Neighbor list info ...
  update every 20 steps, delay 0 steps, check no
  max neighbors/atom: 2000, page size: 100000
  master list distance cutoff = 3.3
  ghost atom cutoff = 3.3
  binsize = 1.65, bins = 11 11 11
  1 neighbor lists, perpetual/occasional/extra = 1 0 0
  (1) pair lj/smooth, perpetual
      attributes: half, newton on
      pair build: half/bin/atomonly/newton
      stencil: half/bin/3d
      bin: standard
Per MPI rank memory allocation (min/avg/max) = 3.554 | 3.554 | 3.554 Mbytes
Step Time Temp KinEng PotEng TotEng Press 
       0            0    1.3955894    2.0927639   -4.2659229    -2.173159    1.3854834 
      50          0.1    1.3880109    2.0813994   -4.2544601   -2.1730607    1.3907913 
     100          0.2     1.393889     2.090214   -4.2634886   -2.1732746    1.3548722 
     150          0.3    1.3857104    2.0779497   -4.2507126   -2.1727629      1.39971 
     200          0.4    1.3877417    2.0809958   -4.2538298    -2.172834    1.3792012 
     250          0.5    1.3923724    2.0879397   -4.2603796   -2.1724399    1.3347811 
     300          0.6    1.4015353      2.10168   -4.2745741   -2.1728941    1.2766539 
     350          0.7    1.3922944    2.0878228   -4.2607418   -2.1729191    1.3166123 
     400          0.8    1.3992808    2.0982993   -4.2714815   -2.1731821    1.3248495 
     450          0.9    1.3882737    2.0817935   -4.2549405    -2.173147    1.3749778 
     500            1    1.3730505    2.0589654    -4.232251   -2.1732856     1.428185 
     550          1.1     1.393003    2.0888854   -4.2618321   -2.1729467    1.3181547 
     600          1.2    1.4093203    2.1133542   -4.2864297   -2.1730755    1.2391958 
     650          1.3     1.383395    2.0744777   -4.2472677     -2.17279    1.3957131 
     700          1.4    1.4016469    2.1018474   -4.2746778   -2.1728304    1.2948297 
     750          1.5     1.385205    2.0771919   -4.2501603   -2.1729684    1.3489913 
     800          1.6    1.3923203    2.0878617   -4.2607461   -2.1728845    1.3264798 
     850          1.7    1.3960588    2.0934677   -4.2664635   -2.1729957    1.3239463 
     900          1.8    1.3912253    2.0862196   -4.2590001   -2.1727805    1.3379016 
     950          1.9    1.3911463    2.0861012   -4.2587213   -2.1726201    1.3266351 
    1000            2    1.3856147    2.0778063   -4.2507257   -2.1729194     1.360303 
    1050          2.1    1.3835094    2.0746491   -4.2474519   -2.1728028    1.3742531 
    1100          2.2    1.3927204    2.0884617   -4.2610295   -2.1725678     1.341345 
    1150          2.3    1.3915925    2.0867702   -4.2595942    -2.172824       1.3682 
    1200          2.4    1.3915819    2.0867543   -4.2601441   -2.1733897    1.3445462 
    1250          2.5    1.3929831    2.0888555   -4.2621949   -2.1733393    1.3610147 
    1300          2.6    1.3964421    2.0940424   -4.2672036   -2.1731611    1.3376099 
    1350          2.7    1.4015152    2.1016499   -4.2748728   -2.1732229    1.3016308 
    1400          2.8    1.4083289    2.1118674   -4.2853874   -2.1735201    1.3046116 
    1450          2.9    1.3861376    2.0785903    -4.251883   -2.1732927    1.4282505 
    1500            3    1.4123079    2.1178342   -4.2905036   -2.1726694    1.3361926 
    1550          3.1     1.402221    2.1027082   -4.2756762   -2.1729679     1.336138 
    1600          3.2    1.3984907    2.0971145   -4.2703658   -2.1732513    1.3334892 
    1650          3.3     1.404501    2.1061273   -4.2789837   -2.1728563    1.3152508 
    1700          3.4    1.3882171    2.0817087   -4.2549009   -2.1731922    1.4016299 
    1750          3.5     1.400531    2.1001741   -4.2728883   -2.1727142    1.3469043 
    1800          3.6    1.3810059    2.0708951   -4.2436252   -2.1727302    1.4144104 
    1850          3.7    1.4044315     2.106023    -4.279058    -2.173035    1.2938653 
    1900          3.8    1.4033218    2.1043591    -4.277283    -2.172924    1.2874079 
    1950          3.9    1.3966046    2.0942862   -4.2674813    -2.173195    1.3188451 
    2000            4    1.3824382    2.0730428   -4.2461986   -2.1731558      1.41813 
    2050          4.1    1.3786642    2.0673836   -4.2410664   -2.1736828    1.4105478 
    2100          4.2    1.3975267    2.0956689   -4.2689367   -2.1732678     1.318595 
    2150          4.3    1.3904745    2.0850938   -4.2581049   -2.1730111    1.3261297 
    2200          4.4    1.4029396    2.1037858   -4.2767975   -2.1730117    1.2691472 
    2250          4.5    1.3918952    2.0872242   -4.2602253   -2.1730011    1.3690007 
    2300          4.6    1.3983375    2.0968847   -4.2701787   -2.1732941    1.3161005 
    2350          4.7    1.4108151    2.1155957   -4.2887316    -2.173136    1.2620437 
    2400          4.8    1.3833529    2.0744145   -4.2470057   -2.1725912    1.4353537 
    2450          4.9    1.3959395    2.0932889   -4.2657596   -2.1724707    1.3246756 
    2500            5    1.4024137    2.1029972   -4.2756822    -2.172685    1.2864141 
Loop time of 9.18939 on 1 procs for 2500 steps with 3375 atoms

Performance: 47010.724 tau/day, 272.053 timesteps/s
99.7% CPU use with 1 MPI tasks x no OpenMP threads

MPI task timing breakdown:
Section |  min time  |  avg time  |  max time  |%varavg| %total
---------------------------------------------------------------
Pair    | 8.1217     | 8.1217     | 8.1217     |   0.0 | 88.38
Neigh   | 0.76843    | 0.76843    | 0.76843    |   0.0 |  8.36
Comm    | 0.10482    | 0.10482    | 0.10482    |   0.0 |  1.14
Output  | 0.00080873 | 0.00080873 | 0.00080873 |   0.0 |  0.01
Modify  | 0.16819    | 0.16819    | 0.16819    |   0.0 |  1.83
Other   |            | 0.02545    |            |       |  0.28

Nlocal:        3375.00 ave        3375 max        3375 min
Histogram: 1 0 0 0 0 0 0 0 0 0
Nghost:        5591.00 ave        5591 max        5591 min
Histogram: 1 0 0 0 0 0 0 0 0 0
Neighs:        169291.0 ave      169291 max      169291 min
Histogram: 1 0 0 0 0 0 0 0 0 0

Total # of neighbors = 169291
Ave neighs/atom = 50.160296
Neighbor list builds = 125
Dangerous builds not checked
variable        diff_accum equal ${diff_accum}+${diff_integ}/(3*${loop_iterations})
variable        diff_accum equal 0.0212753011820505+${diff_integ}/(3*${loop_iterations})
variable        diff_accum equal 0.0212753011820505+0.540043863932229/(3*${loop_iterations})
variable        diff_accum equal 0.0212753011820505+0.540043863932229/(3*25)
unfix           fixVACF
write_data      liquid.T${temp}.rho${rho}.data
write_data      liquid.T1.4.rho${rho}.data
write_data      liquid.T1.4.rho0.67.data
System init for write_data ...
print           "" append log.vacf.T${temp}.rho${rho}.txt screen no
print           "" append log.vacf.T1.4.rho${rho}.txt screen no
print           "" append log.vacf.T1.4.rho0.67.txt screen no

next            loop_counter
jump            SELF loop
clear

pair_style	lj/smooth 2.5 3.0

read_data       liquid.T${temp}.rho${rho}.data
read_data       liquid.T1.4.rho${rho}.data
read_data       liquid.T1.4.rho0.67.data
Reading data file ...
  orthogonal box = (0.0000000 0.0000000 0.0000000) to (17.142191 17.142191 17.142191)
  1 by 1 by 1 MPI processor grid
  reading atoms ...
  3375 atoms
  reading velocities ...
  3375 velocities
  read_data CPU = 0.009 seconds

neighbor	0.3 bin
neigh_modify	every 20 delay 0 check no

fix		1 all nve
timestep        0.002
thermo		50

reset_timestep  0
compute         myVACF all vacf

fix             fixVACF all vector 1 c_myVACF[4]
variable        diff_integ equal dt*trap(f_fixVACF)
variable        curVACF equal c_myVACF[4]

variable        step0 equal step
variable        step0 equal $(v_step0)
variable        step0 equal 0
variable        dtime equal (step-${step0})*dt
variable        dtime equal (step-0)*dt
fix             print_vacf all print 2 "${dtime} ${curVACF} ${diff_integ}" append log.vacf.T${temp}.rho${rho}.txt screen no
fix             print_vacf all print 2 "${dtime} ${curVACF} ${diff_integ}" append log.vacf.T1.4.rho${rho}.txt screen no
fix             print_vacf all print 2 "${dtime} ${curVACF} ${diff_integ}" append log.vacf.T1.4.rho0.67.txt screen no
thermo_style	custom step time temp ke pe etotal press

run             ${loop_length}
run             2500
Neighbor list info ...
  update every 20 steps, delay 0 steps, check no
  max neighbors/atom: 2000, page size: 100000
  master list distance cutoff = 3.3
  ghost atom cutoff = 3.3
  binsize = 1.65, bins = 11 11 11
  1 neighbor lists, perpetual/occasional/extra = 1 0 0
  (1) pair lj/smooth, perpetual
      attributes: half, newton on
      pair build: half/bin/atomonly/newton
      stencil: half/bin/3d
      bin: standard
Per MPI rank memory allocation (min/avg/max) = 3.559 | 3.559 | 3.559 Mbytes
Step Time Temp KinEng PotEng TotEng Press 
       0            0    1.4024137    2.1029972   -4.2756822    -2.172685    1.2864141 
      50          0.1    1.3859747     2.078346   -4.2509543   -2.1726082    1.3742307 
     100          0.2     1.390847    2.0856523   -4.2585636   -2.1729113    1.3536783 
     150          0.3    1.3945335    2.0911805   -4.2640346   -2.1728542    1.3669106 
     200          0.4    1.4127656    2.1185205   -4.2920912   -2.1735707    1.2783252 
     250          0.5    1.3880815    2.0815053   -4.2549185   -2.1734132    1.4206622 
     300          0.6     1.394921    2.0917616   -4.2650227   -2.1732612    1.3689371 
     350          0.7    1.3908025    2.0855857   -4.2586312   -2.1730455    1.3695774 
     400          0.8    1.4082665    2.1117739   -4.2849707   -2.1731968    1.2833776 
     450          0.9    1.3980475      2.09645   -4.2691077   -2.1726577    1.3336583 
     500            1    1.4004701    2.1000827   -4.2725906   -2.1725079    1.3390943 
     550          1.1    1.4066407    2.1093359   -4.2821745   -2.1728385    1.2966473 
     600          1.2    1.3926671    2.0883817   -4.2612835   -2.1729018    1.3623834 
     650          1.3    1.4011795    2.1011464   -4.2742453   -2.1730989    1.3052867 
     700          1.4    1.4022306    2.1027228   -4.2755235   -2.1728007    1.3052871 
     750          1.5    1.4164021    2.1239736   -4.2965673   -2.1725937     1.221937 
     800          1.6    1.3846996     2.076434   -4.2488542   -2.1724202    1.3852238 
     850          1.7     1.391979    2.0873498   -4.2596361   -2.1722863    1.3509893 
     900          1.8    1.3958112    2.0930965   -4.2662618   -2.1731654    1.3352137 
     950          1.9    1.3861346    2.0785858   -4.2516551   -2.1730693    1.4212168 
    1000            2    1.4012289    2.1012205   -4.2744399   -2.1732193     1.325925 
    1050          2.1    1.3883679    2.0819348     -4.25528   -2.1733452    1.3789094 
    1100          2.2    1.3800694    2.0694907   -4.2426164   -2.1731257    1.4372624 
    1150          2.3     1.388878    2.0826998   -4.2557396   -2.1730398    1.3768312 
    1200          2.4    1.3864386    2.0790416    -4.251812   -2.1727703    1.3652265 
    1250          2.5    1.3907222    2.0854652   -4.2583652      -2.1729    1.3757719 
    1300          2.6    1.3980821    2.0965017   -4.2691773   -2.1726756    1.3758677 
    1350          2.7     1.395215    2.0922024   -4.2650397   -2.1728372    1.3895433 
    1400          2.8    1.3972693    2.0952829   -4.2679614   -2.1726786    1.3342561 
    1450          2.9    1.4009301    2.1007725   -4.2735607   -2.1727883    1.2777588 
    1500            3    1.4056181    2.1078024   -4.2807363   -2.1729339    1.2451741 
    1550          3.1    1.3914747    2.0865936   -4.2597003   -2.1731067     1.325983 
    1600          3.2    1.3736162    2.0598138   -4.2328506   -2.1730368    1.4045237 
    1650          3.3    1.3998439    2.0991437   -4.2723913   -2.1732476    1.2696897 
    1700          3.4    1.3812972     2.071332    -4.244623   -2.1732911    1.3728465 
    1750          3.5    1.3805049    2.0701439   -4.2433693   -2.1732255    1.4110385 
    1800          3.6    1.3907462    2.0855012   -4.2587607   -2.1732595    1.3426221 
    1850          3.7    1.4018716    2.1021844   -4.2749615   -2.1727771    1.2957073 
    1900          3.8    1.4185904    2.1272552    -4.300439   -2.1731838    1.2090694 
    1950          3.9    1.3897494    2.0840064   -4.2565021   -2.1724957    1.3493465 
    2000            4     1.383339    2.0743936   -4.2470167   -2.1726231    1.3791593 
    2050          4.1    1.3968105    2.0945949   -4.2675707   -2.1729758    1.2925209 
    2100          4.2    1.3993658    2.0984267   -4.2713632   -2.1729365     1.268811 
    2150          4.3    1.4095026    2.1136274   -4.2865262   -2.1728987    1.2146588 
    2200          4.4    1.3932202    2.0892111     -4.26241   -2.1731989    1.3673488 
    2250          4.5    1.4007783    2.1005449     -4.27375   -2.1732051    1.3498749 
    2300          4.6    1.3991764    2.0981427   -4.2714126   -2.1732699    1.3405211 
    2350          4.7    1.4018011    2.1020787    -4.274914   -2.1728353    1.2975012 
    2400          4.8    1.3800408    2.0694478   -4.2421015   -2.1726537    1.4123573 
    2450          4.9    1.3880984    2.0815307   -4.2545968   -2.1730661    1.3341032 
    2500            5    1.3852158    2.0772081   -4.2502226   -2.1730145    1.3662377 
Loop time of 9.20244 on 1 procs for 2500 steps with 3375 atoms

Performance: 46944.059 tau/day, 271.667 timesteps/s
99.8% CPU use with 1 MPI tasks x no OpenMP threads

MPI task timing breakdown:
Section |  min time  |  avg time  |  max time  |%varavg| %total
---------------------------------------------------------------
Pair    | 8.1381     | 8.1381     | 8.1381     |   0.0 | 88.43
Neigh   | 0.76708    | 0.76708    | 0.76708    |   0.0 |  8.34
Comm    | 0.10659    | 0.10659    | 0.10659    |   0.0 |  1.16
Output  | 0.00084036 | 0.00084036 | 0.00084036 |   0.0 |  0.01
Modify  | 0.16436    | 0.16436    | 0.16436    |   0.0 |  1.79
Other   |            | 0.02548    |            |       |  0.28

Nlocal:        3375.00 ave        3375 max        3375 min
Histogram: 1 0 0 0 0 0 0 0 0 0
Nghost:        5517.00 ave        5517 max        5517 min
Histogram: 1 0 0 0 0 0 0 0 0 0
Neighs:        169185.0 ave      169185 max      169185 min
Histogram: 1 0 0 0 0 0 0 0 0 0

Total # of neighbors = 169185
Ave neighs/atom = 50.128889
Neighbor list builds = 125
Dangerous builds not checked
variable        diff_accum equal ${diff_accum}+${diff_integ}/(3*${loop_iterations})
variable        diff_accum equal 0.0284758860344802+${diff_integ}/(3*${loop_iterations})
variable        diff_accum equal 0.0284758860344802+0.485461004391547/(3*${loop_iterations})
variable        diff_accum equal 0.0284758860344802+0.485461004391547/(3*25)
unfix           fixVACF
write_data      liquid.T${temp}.rho${rho}.data
write_data      liquid.T1.4.rho${rho}.data
write_data      liquid.T1.4.rho0.67.data
System init for write_data ...
print           "" append log.vacf.T${temp}.rho${rho}.txt screen no
print           "" append log.vacf.T1.4.rho${rho}.txt screen no
print           "" append log.vacf.T1.4.rho0.67.txt screen no

next            loop_counter
jump            SELF loop
clear

pair_style	lj/smooth 2.5 3.0

read_data       liquid.T${temp}.rho${rho}.data
read_data       liquid.T1.4.rho${rho}.data
read_data       liquid.T1.4.rho0.67.data
Reading data file ...
  orthogonal box = (0.0000000 0.0000000 0.0000000) to (17.142191 17.142191 17.142191)
  1 by 1 by 1 MPI processor grid
  reading atoms ...
  3375 atoms
  reading velocities ...
  3375 velocities
  read_data CPU = 0.009 seconds

neighbor	0.3 bin
neigh_modify	every 20 delay 0 check no

fix		1 all nve
timestep        0.002
thermo		50

reset_timestep  0
compute         myVACF all vacf

fix             fixVACF all vector 1 c_myVACF[4]
variable        diff_integ equal dt*trap(f_fixVACF)
variable        curVACF equal c_myVACF[4]

variable        step0 equal step
variable        step0 equal $(v_step0)
variable        step0 equal 0
variable        dtime equal (step-${step0})*dt
variable        dtime equal (step-0)*dt
fix             print_vacf all print 2 "${dtime} ${curVACF} ${diff_integ}" append log.vacf.T${temp}.rho${rho}.txt screen no
fix             print_vacf all print 2 "${dtime} ${curVACF} ${diff_integ}" append log.vacf.T1.4.rho${rho}.txt screen no
fix             print_vacf all print 2 "${dtime} ${curVACF} ${diff_integ}" append log.vacf.T1.4.rho0.67.txt screen no
thermo_style	custom step time temp ke pe etotal press

run             ${loop_length}
run             2500
Neighbor list info ...
  update every 20 steps, delay 0 steps, check no
  max neighbors/atom: 2000, page size: 100000
  master list distance cutoff = 3.3
  ghost atom cutoff = 3.3
  binsize = 1.65, bins = 11 11 11
  1 neighbor lists, perpetual/occasional/extra = 1 0 0
  (1) pair lj/smooth, perpetual
      attributes: half, newton on
      pair build: half/bin/atomonly/newton
      stencil: half/bin/3d
      bin: standard
Per MPI rank memory allocation (min/avg/max) = 3.554 | 3.554 | 3.554 Mbytes
Step Time Temp KinEng PotEng TotEng Press 
       0            0    1.3852158    2.0772081   -4.2502226   -2.1730145    1.3662377 
      50          0.1     1.403999    2.1053745   -4.2783712   -2.1729967    1.3110132 
     100          0.2    1.3921717    2.0876389    -4.260588   -2.1729492    1.3660969 
     150          0.3    1.3987464    2.0974979   -4.2704859    -2.172988    1.3025952 
     200          0.4    1.4001191    2.0995564   -4.2725153   -2.1729589    1.2944998 
     250          0.5    1.3899191     2.084261   -4.2572735   -2.1730125    1.3423603 
     300          0.6    1.4035961    2.1047703   -4.2779188   -2.1731486    1.2832263 
     350          0.7    1.4006016    2.1002799   -4.2731492   -2.1728694    1.3166863 
     400          0.8    1.3750232    2.0619236   -4.2348831   -2.1729594    1.4468198 
     450          0.9    1.3877373    2.0809891   -4.2538217   -2.1728325    1.3662815 
     500            1    1.3916825    2.0869053   -4.2596871   -2.1727818    1.3692435 
     550          1.1    1.3901726     2.084641   -4.2576343   -2.1729932    1.3603892 
     600          1.2    1.3933754    2.0894438   -4.2624224   -2.1729786    1.3183118 
     650          1.3    1.3906412    2.0853437   -4.2589386   -2.1735949    1.3810497 
     700          1.4    1.3839666    2.0753348   -4.2486203   -2.1732855    1.4345422 
     750          1.5    1.3908013    2.0855838   -4.2587174   -2.1731336    1.3756869 
     800          1.6     1.387841    2.0811447   -4.2541963   -2.1730517    1.3826345 
     850          1.7    1.3953302    2.0923751   -4.2650025   -2.1726273    1.3251013 
     900          1.8    1.3936306    2.0898265   -4.2624073   -2.1725808    1.3103537 
     950          1.9    1.4024543    2.1030581   -4.2752182   -2.1721601    1.2451246 
    1000            2    1.3993827    2.0984521   -4.2705677   -2.1721157    1.2463022 
    1050          2.1    1.4100455    2.1144415   -4.2869864   -2.1725448    1.2309281 
    1100          2.2    1.3874188    2.0805116   -4.2531903   -2.1726787    1.3860061 
    1150          2.3    1.3968629    2.0946735   -4.2673568   -2.1726833    1.3718478 
    1200          2.4    1.3856484    2.0778567   -4.2507201   -2.1728634     1.433105 
    1250          2.5    1.3989349    2.0977806   -4.2707142   -2.1729337    1.3201152 
    1300          2.6    1.3845771    2.0762503   -4.2491512   -2.1729009    1.3876055 
    1350          2.7    1.4071397    2.1100842   -4.2826496   -2.1725654    1.2789479 
    1400          2.8    1.3926067    2.0882911   -4.2607423   -2.1724511     1.358586 
    1450          2.9    1.3735616    2.0597319   -4.2324288   -2.1726969    1.4738974 
    1500            3    1.3955045    2.0926365   -4.2654026   -2.1727661    1.3287687 
    1550          3.1    1.3958882    2.0932118   -4.2659159   -2.1727041    1.3225286 
    1600          3.2    1.4124062    2.1179816    -4.290567   -2.1725854    1.2554286 
    1650          3.3    1.3907276    2.0854732   -4.2582061   -2.1727329    1.3440508 
    1700          3.4    1.3916399    2.0868413   -4.2592939   -2.1724526    1.3477326 
    1750          3.5    1.3953625    2.0924236   -4.2653208   -2.1728972    1.3466613 
    1800          3.6     1.386348    2.0789058   -4.2516986   -2.1727928    1.3901251 
    1850          3.7    1.4125076    2.1181335   -4.2911224   -2.1729889    1.2418908 
    1900          3.8    1.3819789    2.0723541   -4.2455089   -2.1731548    1.4454511 
    1950          3.9    1.3877634    2.0810283   -4.2540844   -2.1730561    1.3921195 
    2000            4    1.4055345    2.1076771    -4.280781    -2.173104    1.2745242 
    2050          4.1    1.3921258      2.08757   -4.2606573   -2.1730873    1.3231974 
    2100          4.2    1.4117779    2.1170393   -4.2903053    -2.173266     1.237937 
    2150          4.3    1.3853421    2.0773974   -4.2506371   -2.1732396    1.3633458 
    2200          4.4    1.3963791    2.0939481   -4.2672251    -2.173277    1.3223769 
    2250          4.5    1.4043516    2.1059032   -4.2788041    -2.172901    1.3037087 
    2300          4.6    1.3803669    2.0699369   -4.2427565   -2.1728196    1.4281865 
    2350          4.7    1.4043624    2.1059195   -4.2787407   -2.1728212    1.3145858 
    2400          4.8    1.3881684    2.0816357   -4.2540813   -2.1724457    1.3747599 
    2450          4.9    1.3845102      2.07615   -4.2488203   -2.1726703    1.3809517 
    2500            5    1.4109809    2.1158443   -4.2886987   -2.1728544    1.2216968 
Loop time of 9.21648 on 1 procs for 2500 steps with 3375 atoms

Performance: 46872.536 tau/day, 271.253 timesteps/s
99.8% CPU use with 1 MPI tasks x no OpenMP threads

MPI task timing breakdown:
Section |  min time  |  avg time  |  max time  |%varavg| %total
---------------------------------------------------------------
Pair    | 8.1588     | 8.1588     | 8.1588     |   0.0 | 88.52
Neigh   | 0.7618     | 0.7618     | 0.7618     |   0.0 |  8.27
Comm    | 0.1043     | 0.1043     | 0.1043     |   0.0 |  1.13
Output  | 0.00083705 | 0.00083705 | 0.00083705 |   0.0 |  0.01
Modify  | 0.16522    | 0.16522    | 0.16522    |   0.0 |  1.79
Other   |            | 0.02548    |            |       |  0.28

Nlocal:        3375.00 ave        3375 max        3375 min
Histogram: 1 0 0 0 0 0 0 0 0 0
Nghost:        5594.00 ave        5594 max        5594 min
Histogram: 1 0 0 0 0 0 0 0 0 0
Neighs:        169128.0 ave      169128 max      169128 min
Histogram: 1 0 0 0 0 0 0 0 0 0

Total # of neighbors = 169128
Ave neighs/atom = 50.112000
Neighbor list builds = 125
Dangerous builds not checked
variable        diff_accum equal ${diff_accum}+${diff_integ}/(3*${loop_iterations})
variable        diff_accum equal 0.0349486994263675+${diff_integ}/(3*${loop_iterations})
variable        diff_accum equal 0.0349486994263675+0.501705055087558/(3*${loop_iterations})
variable        diff_accum equal 0.0349486994263675+0.501705055087558/(3*25)
unfix           fixVACF
write_data      liquid.T${temp}.rho${rho}.data
write_data      liquid.T1.4.rho${rho}.data
write_data      liquid.T1.4.rho0.67.data
System init for write_data ...
print           "" append log.vacf.T${temp}.rho${rho}.txt screen no
print           "" append log.vacf.T1.4.rho${rho}.txt screen no
print           "" append log.vacf.T1.4.rho0.67.txt screen no

next            loop_counter
jump            SELF loop
clear

pair_style	lj/smooth 2.5 3.0

read_data       liquid.T${temp}.rho${rho}.data
read_data       liquid.T1.4.rho${rho}.data
read_data       liquid.T1.4.rho0.67.data
Reading data file ...
  orthogonal box = (0.0000000 0.0000000 0.0000000) to (17.142191 17.142191 17.142191)
  1 by 1 by 1 MPI processor grid
  reading atoms ...
  3375 atoms
  reading velocities ...
  3375 velocities
  read_data CPU = 0.009 seconds

neighbor	0.3 bin
neigh_modify	every 20 delay 0 check no

fix		1 all nve
timestep        0.002
thermo		50

reset_timestep  0
compute         myVACF all vacf

fix             fixVACF all vector 1 c_myVACF[4]
variable        diff_integ equal dt*trap(f_fixVACF)
variable        curVACF equal c_myVACF[4]

variable        step0 equal step
variable        step0 equal $(v_step0)
variable        step0 equal 0
variable        dtime equal (step-${step0})*dt
variable        dtime equal (step-0)*dt
fix             print_vacf all print 2 "${dtime} ${curVACF} ${diff_integ}" append log.vacf.T${temp}.rho${rho}.txt screen no
fix             print_vacf all print 2 "${dtime} ${curVACF} ${diff_integ}" append log.vacf.T1.4.rho${rho}.txt screen no
fix             print_vacf all print 2 "${dtime} ${curVACF} ${diff_integ}" append log.vacf.T1.4.rho0.67.txt screen no
thermo_style	custom step time temp ke pe etotal press

run             ${loop_length}
run             2500
Neighbor list info ...
  update every 20 steps, delay 0 steps, check no
  max neighbors/atom: 2000, page size: 100000
  master list distance cutoff = 3.3
  ghost atom cutoff = 3.3
  binsize = 1.65, bins = 11 11 11
  1 neighbor lists, perpetual/occasional/extra = 1 0 0
  (1) pair lj/smooth, perpetual
      attributes: half, newton on
      pair build: half/bin/atomonly/newton
      stencil: half/bin/3d
      bin: standard
Per MPI rank memory allocation (min/avg/max) = 3.557 | 3.557 | 3.557 Mbytes
Step Time Temp KinEng PotEng TotEng Press 
       0            0    1.4109809    2.1158443   -4.2886987   -2.1728544    1.2216968 
      50          0.1    1.3788542    2.0676684   -4.2403552   -2.1726868    1.3980767 
     100          0.2    1.3895408    2.0836936   -4.2566472   -2.1729536    1.3477809 
     150          0.3    1.3929765    2.0888456   -4.2614121   -2.1725665    1.3225433 
     200          0.4    1.4110477    2.1159444   -4.2886943   -2.1727499     1.231589 
     250          0.5    1.3993755    2.0984413   -4.2711326   -2.1726913    1.3260775 
     300          0.6    1.3887218    2.0824655   -4.2550019   -2.1725364    1.3977439 
     350          0.7    1.4006345    2.1003293   -4.2733199   -2.1729906    1.3297788 
     400          0.8    1.4016399     2.101837   -4.2747284   -2.1728914    1.3406895 
     450          0.9    1.3911682    2.0861341   -4.2594245   -2.1732904    1.4073614 
     500            1    1.4001858    2.0996565    -4.273197   -2.1735406    1.3942038 
     550          1.1     1.397455    2.0955614   -4.2683475   -2.1727861     1.374482 
     600          1.2     1.405115     2.107048   -4.2796963   -2.1726483    1.3003706 
     650          1.3    1.4029822    2.1038498   -4.2761761   -2.1723263    1.2900392 
     700          1.4    1.3851744    2.0771459   -4.2497426   -2.1725967    1.3574439 
     750          1.5    1.3890624    2.0829762   -4.2558067   -2.1728306     1.327327 
     800          1.6    1.3920029    2.0873856   -4.2599579   -2.1725723    1.2877775 
     850          1.7    1.3993822    2.0984514   -4.2709945   -2.1725431    1.2825257 
     900          1.8    1.3857609    2.0780255   -4.2504792   -2.1724538    1.3640029 
     950          1.9    1.4060382    2.1084324   -4.2810153   -2.1725828    1.2609659 
    1000            2    1.3892632    2.0832774   -4.2563266   -2.1730492     1.376325 
    1050          2.1     1.411174    2.1161339   -4.2890438   -2.1729099    1.2496309 
    1100          2.2    1.4022475     2.102748   -4.2759469   -2.1731989    1.2965589 
    1150          2.3    1.3852005    2.0771851   -4.2503181    -2.173133    1.3978025 
    1200          2.4    1.4040504    2.1054515   -4.2780669   -2.1726154    1.2758161 
    1250          2.5    1.3980534    2.0964588   -4.2692351   -2.1727763    1.3169581 
    1300          2.6    1.3724299    2.0580348   -4.2309472   -2.1729123     1.452863 
    1350          2.7    1.4196255    2.1288073   -4.3015381   -2.1727308    1.1994415 
    1400          2.8    1.3809893    2.0708701   -4.2438663   -2.1729962    1.4278473 
    1450          2.9    1.4186871    2.1274002   -4.3001238   -2.1727237    1.2597338 
    1500            3    1.3962747    2.0937914   -4.2669059   -2.1731144    1.3535177 
    1550          3.1    1.3971515    2.0951062   -4.2682357   -2.1731294     1.334805 
    1600          3.2    1.3837528    2.0750142   -4.2476089   -2.1725947    1.3773581 
    1650          3.3    1.3943709    2.0909367   -4.2633473   -2.1724106     1.322105 
    1700          3.4    1.4244108    2.1359831   -4.3086748   -2.1726917    1.2141465 
    1750          3.5    1.3960507    2.0934556    -4.266261   -2.1728054    1.3603042 
    1800          3.6    1.4062494    2.1087491   -4.2817437   -2.1729946    1.2965199 
    1850          3.7    1.4001179    2.0995546   -4.2730383   -2.1734837    1.3022494 
    1900          3.8     1.409148    2.1130957    -4.286429   -2.1733334    1.2373618 
    1950          3.9    1.3953921    2.0924679   -4.2654986   -2.1730307    1.3323115 
    2000            4    1.3931684    2.0891333   -4.2619599   -2.1728265     1.356381 
    2050          4.1    1.4113705    2.1164285   -4.2891255   -2.1726969     1.267113 
    2100          4.2    1.4021128     2.102546   -4.2753734   -2.1728274     1.274692 
    2150          4.3    1.3991722    2.0981365   -4.2702845   -2.1721479    1.3007188 
    2200          4.4    1.3898191     2.084111   -4.2568384   -2.1727274    1.3531669 
    2250          4.5    1.4000313    2.0994247   -4.2719185   -2.1724938    1.3047764 
    2300          4.6     1.389144    2.0830986   -4.2559728   -2.1728742    1.3543684 
    2350          4.7    1.3951426    2.0920939   -4.2646772   -2.1725833      1.33679 
    2400          4.8    1.4034271    2.1045168   -4.2766986   -2.1721817    1.2703619 
    2450          4.9    1.3955174    2.0926558   -4.2655518    -2.172896    1.2946193 
    2500            5     1.400108    2.0995398   -4.2720176   -2.1724778    1.2910149 
Loop time of 9.2366 on 1 procs for 2500 steps with 3375 atoms

Performance: 46770.440 tau/day, 270.662 timesteps/s
99.7% CPU use with 1 MPI tasks x no OpenMP threads

MPI task timing breakdown:
Section |  min time  |  avg time  |  max time  |%varavg| %total
---------------------------------------------------------------
Pair    | 8.1728     | 8.1728     | 8.1728     |   0.0 | 88.48
Neigh   | 0.7671     | 0.7671     | 0.7671     |   0.0 |  8.30
Comm    | 0.10637    | 0.10637    | 0.10637    |   0.0 |  1.15
Output  | 0.00081033 | 0.00081033 | 0.00081033 |   0.0 |  0.01
Modify  | 0.16387    | 0.16387    | 0.16387    |   0.0 |  1.77
Other   |            | 0.02566    |            |       |  0.28

Nlocal:        3375.00 ave        3375 max        3375 min
Histogram: 1 0 0 0 0 0 0 0 0 0
Nghost:        5587.00 ave        5587 max        5587 min
Histogram: 1 0 0 0 0 0 0 0 0 0
Neighs:        168976.0 ave      168976 max      168976 min
Histogram: 1 0 0 0 0 0 0 0 0 0

Total # of neighbors = 168976
Ave neighs/atom = 50.066963
Neighbor list builds = 125
Dangerous builds not checked
variable        diff_accum equal ${diff_accum}+${diff_integ}/(3*${loop_iterations})
variable        diff_accum equal 0.0416381001608683+${diff_integ}/(3*${loop_iterations})
variable        diff_accum equal 0.0416381001608683+0.50540642480641/(3*${loop_iterations})
variable        diff_accum equal 0.0416381001608683+0.50540642480641/(3*25)
unfix           fixVACF
write_data      liquid.T${temp}.rho${rho}.data
write_data      liquid.T1.4.rho${rho}.data
write_data      liquid.T1.4.rho0.67.data
System init for write_data ...
print           "" append log.vacf.T${temp}.rho${rho}.txt screen no
print           "" append log.vacf.T1.4.rho${rho}.txt screen no
print           "" append log.vacf.T1.4.rho0.67.txt screen no

next            loop_counter
jump            SELF loop
clear

pair_style	lj/smooth 2.5 3.0

read_data       liquid.T${temp}.rho${rho}.data
read_data       liquid.T1.4.rho${rho}.data
read_data       liquid.T1.4.rho0.67.data
Reading data file ...
  orthogonal box = (0.0000000 0.0000000 0.0000000) to (17.142191 17.142191 17.142191)
  1 by 1 by 1 MPI processor grid
  reading atoms ...
  3375 atoms
  reading velocities ...
  3375 velocities
  read_data CPU = 0.009 seconds

neighbor	0.3 bin
neigh_modify	every 20 delay 0 check no

fix		1 all nve
timestep        0.002
thermo		50

reset_timestep  0
compute         myVACF all vacf

fix             fixVACF all vector 1 c_myVACF[4]
variable        diff_integ equal dt*trap(f_fixVACF)
variable        curVACF equal c_myVACF[4]

variable        step0 equal step
variable        step0 equal $(v_step0)
variable        step0 equal 0
variable        dtime equal (step-${step0})*dt
variable        dtime equal (step-0)*dt
fix             print_vacf all print 2 "${dtime} ${curVACF} ${diff_integ}" append log.vacf.T${temp}.rho${rho}.txt screen no
fix             print_vacf all print 2 "${dtime} ${curVACF} ${diff_integ}" append log.vacf.T1.4.rho${rho}.txt screen no
fix             print_vacf all print 2 "${dtime} ${curVACF} ${diff_integ}" append log.vacf.T1.4.rho0.67.txt screen no
thermo_style	custom step time temp ke pe etotal press

run             ${loop_length}
run             2500
Neighbor list info ...
  update every 20 steps, delay 0 steps, check no
  max neighbors/atom: 2000, page size: 100000
  master list distance cutoff = 3.3
  ghost atom cutoff = 3.3
  binsize = 1.65, bins = 11 11 11
  1 neighbor lists, perpetual/occasional/extra = 1 0 0
  (1) pair lj/smooth, perpetual
      attributes: half, newton on
      pair build: half/bin/atomonly/newton
      stencil: half/bin/3d
      bin: standard
Per MPI rank memory allocation (min/avg/max) = 3.556 | 3.556 | 3.556 Mbytes
Step Time Temp KinEng PotEng TotEng Press 
       0            0     1.400108    2.0995398   -4.2720176   -2.1724778    1.2910149 
      50          0.1    1.4037383    2.1049835   -4.2772298   -2.1722463    1.3165148 
     100          0.2    1.4017908    2.1020632   -4.2745791   -2.1725159    1.3341969 
     150          0.3    1.3981983     2.096676   -4.2696065   -2.1729305    1.3451084 
     200          0.4    1.3985493    2.0972023   -4.2697946   -2.1725923    1.3210637 
     250          0.5    1.4018927     2.102216   -4.2751751   -2.1729591    1.3141821 
     300          0.6    1.4148575    2.1216575    -4.295024   -2.1733666    1.2676724 
     350          0.7    1.3990511    2.0979549   -4.2712447   -2.1732898    1.3493128 
     400          0.8    1.4006779    2.1003944   -4.2735246   -2.1731303    1.3077933 
     450          0.9    1.3897338     2.083983   -4.2569587   -2.1729757    1.3332769 
     500            1    1.3928767     2.088696   -4.2618695   -2.1731735    1.3461417 
     550          1.1    1.3871947    2.0801755   -4.2527935    -2.172618    1.3786556 
     600          1.2     1.386634    2.0793347   -4.2524338   -2.1730991    1.3774387 
     650          1.3    1.3817047    2.0719429   -4.2447834   -2.1728406    1.3822788 
     700          1.4    1.4189579    2.1278062   -4.3006072    -2.172801    1.2265711 
     750          1.5    1.4051515    2.1071028   -4.2801751   -2.1730723    1.2812971 
     800          1.6    1.4091525    2.1131025   -4.2859233   -2.1728208    1.2430179 
     850          1.7    1.3898037    2.0840878   -4.2571008   -2.1730129    1.3759638 
     900          1.8    1.3900922    2.0845204   -4.2575846   -2.1730641    1.4031186 
     950          1.9    1.3986079    2.0972903   -4.2707033    -2.173413    1.3331685 
    1000            2    1.4128197    2.1186017   -4.2914856   -2.1728839    1.2278162 
    1050          2.1    1.4069742    2.1098359   -4.2828807   -2.1730448    1.2809782 
    1100          2.2    1.4073831    2.1104492   -4.2833295   -2.1728803    1.2654691 
    1150          2.3    1.4013938    2.1014678   -4.2744569    -2.172989    1.2805031 
    1200          2.4    1.3986602    2.0973687   -4.2707446    -2.173376    1.3283494 
    1250          2.5    1.3943606    2.0909211   -4.2638232   -2.1729021    1.3550483 
    1300          2.6    1.3873862    2.0804626   -4.2535553   -2.1730927    1.4078201 
    1350          2.7    1.4029961    2.1038706   -4.2770031   -2.1731324    1.3556573 
    1400          2.8    1.3858239    2.0781199   -4.2509854   -2.1728655    1.4530749 
    1450          2.9    1.3965208    2.0941606   -4.2671561   -2.1729955    1.3534532 
    1500            3    1.4010062    2.1008866   -4.2731735   -2.1722869    1.2701747 
    1550          3.1    1.3784823    2.0671108   -4.2398306   -2.1727199     1.408505 
    1600          3.2    1.4069267    2.1097647    -4.282467   -2.1727023    1.2891458 
    1650          3.3     1.410304    2.1148292   -4.2874194   -2.1725901    1.2537744 
    1700          3.4    1.3804774    2.0701026   -4.2430377   -2.1729351    1.4283598 
    1750          3.5    1.4065944    2.1092665    -4.282217   -2.1729505    1.2978125 
    1800          3.6    1.3934321    2.0895289   -4.2624547   -2.1729258    1.3659665 
    1850          3.7    1.3977292    2.0959726   -4.2691137   -2.1731411    1.3218931 
    1900          3.8    1.3897808    2.0840536   -4.2571405   -2.1730869    1.3580024 
    1950          3.9    1.4025571    2.1032123   -4.2764338   -2.1732215    1.3090204 
    2000            4    1.3960892    2.0935133   -4.2664428   -2.1729296    1.3707247 
    2050          4.1     1.406082    2.1084981   -4.2814696   -2.1729715    1.3026547 
    2100          4.2    1.4074041    2.1104806   -4.2833283   -2.1728478    1.3112586 
    2150          4.3     1.405509    2.1076389   -4.2808914   -2.1732525    1.2958863 
    2200          4.4    1.4082274    2.1117152   -4.2851064   -2.1733911    1.2756284 
    2250          4.5    1.3942406    2.0907412   -4.2639529   -2.1732117    1.3286119 
    2300          4.6    1.3913727    2.0864406   -4.2596344   -2.1731938    1.3062663 
    2350          4.7    1.3981613    2.0966205   -4.2695488   -2.1729283    1.2289176 
    2400          4.8    1.3999559    2.0993117   -4.2720433   -2.1727316    1.2437041 
    2450          4.9    1.3928292    2.0886248    -4.261447   -2.1728222     1.296952 
    2500            5    1.4137654    2.1200198   -4.2923709   -2.1723511    1.2432681 
Loop time of 9.29141 on 1 procs for 2500 steps with 3375 atoms

Performance: 46494.545 tau/day, 269.066 timesteps/s
99.8% CPU use with 1 MPI tasks x no OpenMP threads

MPI task timing breakdown:
Section |  min time  |  avg time  |  max time  |%varavg| %total
---------------------------------------------------------------
Pair    | 8.2267     | 8.2267     | 8.2267     |   0.0 | 88.54
Neigh   | 0.76851    | 0.76851    | 0.76851    |   0.0 |  8.27
Comm    | 0.10476    | 0.10476    | 0.10476    |   0.0 |  1.13
Output  | 0.00080976 | 0.00080976 | 0.00080976 |   0.0 |  0.01
Modify  | 0.16502    | 0.16502    | 0.16502    |   0.0 |  1.78
Other   |            | 0.0256     |            |       |  0.28

Nlocal:        3375.00 ave        3375 max        3375 min
Histogram: 1 0 0 0 0 0 0 0 0 0
Nghost:        5626.00 ave        5626 max        5626 min
Histogram: 1 0 0 0 0 0 0 0 0 0
Neighs:        169088.0 ave      169088 max      169088 min
Histogram: 1 0 0 0 0 0 0 0 0 0

Total # of neighbors = 169088
Ave neighs/atom = 50.100148
Neighbor list builds = 125
Dangerous builds not checked
variable        diff_accum equal ${diff_accum}+${diff_integ}/(3*${loop_iterations})
variable        diff_accum equal 0.0483768524916204+${diff_integ}/(3*${loop_iterations})
variable        diff_accum equal 0.0483768524916204+0.606813487757595/(3*${loop_iterations})
variable        diff_accum equal 0.0483768524916204+0.606813487757595/(3*25)
unfix           fixVACF
write_data      liquid.T${temp}.rho${rho}.data
write_data      liquid.T1.4.rho${rho}.data
write_data      liquid.T1.4.rho0.67.data
System init for write_data ...
print           "" append log.vacf.T${temp}.rho${rho}.txt screen no
print           "" append log.vacf.T1.4.rho${rho}.txt screen no
print           "" append log.vacf.T1.4.rho0.67.txt screen no

next            loop_counter
jump            SELF loop
clear

pair_style	lj/smooth 2.5 3.0

read_data       liquid.T${temp}.rho${rho}.data
read_data       liquid.T1.4.rho${rho}.data
read_data       liquid.T1.4.rho0.67.data
Reading data file ...
  orthogonal box = (0.0000000 0.0000000 0.0000000) to (17.142191 17.142191 17.142191)
  1 by 1 by 1 MPI processor grid
  reading atoms ...
  3375 atoms
  reading velocities ...
  3375 velocities
  read_data CPU = 0.009 seconds

neighbor	0.3 bin
neigh_modify	every 20 delay 0 check no

fix		1 all nve
timestep        0.002
thermo		50

reset_timestep  0
compute         myVACF all vacf

fix             fixVACF all vector 1 c_myVACF[4]
variable        diff_integ equal dt*trap(f_fixVACF)
variable        curVACF equal c_myVACF[4]

variable        step0 equal step
variable        step0 equal $(v_step0)
variable        step0 equal 0
variable        dtime equal (step-${step0})*dt
variable        dtime equal (step-0)*dt
fix             print_vacf all print 2 "${dtime} ${curVACF} ${diff_integ}" append log.vacf.T${temp}.rho${rho}.txt screen no
fix             print_vacf all print 2 "${dtime} ${curVACF} ${diff_integ}" append log.vacf.T1.4.rho${rho}.txt screen no
fix             print_vacf all print 2 "${dtime} ${curVACF} ${diff_integ}" append log.vacf.T1.4.rho0.67.txt screen no
thermo_style	custom step time temp ke pe etotal press

run             ${loop_length}
run             2500
Neighbor list info ...
  update every 20 steps, delay 0 steps, check no
  max neighbors/atom: 2000, page size: 100000
  master list distance cutoff = 3.3
  ghost atom cutoff = 3.3
  binsize = 1.65, bins = 11 11 11
  1 neighbor lists, perpetual/occasional/extra = 1 0 0
  (1) pair lj/smooth, perpetual
      attributes: half, newton on
      pair build: half/bin/atomonly/newton
      stencil: half/bin/3d
      bin: standard
Per MPI rank memory allocation (min/avg/max) = 3.556 | 3.556 | 3.556 Mbytes
Step Time Temp KinEng PotEng TotEng Press 
       0            0    1.4137654    2.1200198   -4.2923709   -2.1723511    1.2432681 
      50          0.1     1.399668      2.09888   -4.2712489   -2.1723689    1.3299571 
     100          0.2    1.3929465    2.0888006    -4.261198   -2.1723974    1.3303991 
     150          0.3    1.4055948    2.1077675   -4.2804302   -2.1726627    1.2676788 
     200          0.4    1.3852208    2.0772155   -4.2497504   -2.1725349    1.3871881 
     250          0.5    1.3990506    2.0979541   -4.2707268   -2.1727726    1.3083861 
     300          0.6    1.3989979    2.0978751    -4.270847   -2.1729719    1.3079183 
     350          0.7    1.3870339    2.0799344   -4.2529256   -2.1729912    1.3589071 
     400          0.8    1.3927976    2.0885774   -4.2615952   -2.1730177    1.2969288 
     450          0.9    1.3891804    2.0831532   -4.2561731   -2.1730199    1.3695026 
     500            1    1.3953858    2.0924586   -4.2654911   -2.1730326    1.3638129 
     550          1.1    1.3882442    2.0817492   -4.2548393   -2.1730901    1.3561518 
     600          1.2    1.4035236    2.1046617    -4.277355   -2.1726933     1.273716 
     650          1.3    1.3891639    2.0831285   -4.2559047   -2.1727762    1.3847433 
     700          1.4    1.3942488    2.0907536   -4.2642578   -2.1735042     1.345677 
     750          1.5    1.4066415    2.1093371   -4.2824688   -2.1731317    1.3144143 
     800          1.6    1.4106486    2.1153459   -4.2886501   -2.1733042    1.2728136 
     850          1.7    1.3916122    2.0867998   -4.2599215   -2.1731217    1.3553983 
     900          1.8    1.3927265    2.0884707   -4.2614442   -2.1729735    1.3499013 
     950          1.9    1.3862403    2.0787444   -4.2516834    -2.172939     1.384613 
    1000            2    1.4129723    2.1188304   -4.2917437   -2.1729133    1.2771142 
    1050          2.1    1.3835975    2.0747814   -4.2472298   -2.1724484     1.422741 
    1100          2.2     1.420951     2.130795   -4.3034469   -2.1726519    1.2143629 
    1150          2.3    1.3990789    2.0979966   -4.2705889   -2.1725923    1.3391732 
    1200          2.4    1.3872484     2.080256   -4.2534183   -2.1731623    1.3868244 
    1250          2.5    1.3882714    2.0817901    -4.255121   -2.1733308    1.3840085 
    1300          2.6    1.3865185    2.0791615   -4.2526326    -2.173471    1.3666285 
    1350          2.7    1.4115181    2.1166499   -4.2895889   -2.1729391    1.2628211 
    1400          2.8    1.3947279     2.091472   -4.2646023   -2.1731303    1.3789926 
    1450          2.9    1.4067508    2.1095009   -4.2827187   -2.1732178    1.3104068 
    1500            3    1.3963561    2.0939135   -4.2677243   -2.1738108    1.3386335 
    1550          3.1    1.4011923    2.1011657   -4.2745574   -2.1733918    1.2902986 
    1600          3.2    1.4143655    2.1209197   -4.2941401   -2.1732204    1.2170753 
    1650          3.3    1.4094977    2.1136201   -4.2863258   -2.1727056    1.2852664 
    1700          3.4    1.3831085     2.074048   -4.2467979   -2.1727499    1.4473352 
    1750          3.5    1.3857711    2.0780408   -4.2505488    -2.172508    1.4298058 
    1800          3.6    1.3973517    2.0954064   -4.2675196   -2.1721132    1.3755085 
    1850          3.7    1.4199895    2.1293531   -4.3023505   -2.1729974    1.2359672 
    1900          3.8     1.407035    2.1099272   -4.2828566   -2.1729294    1.2664449 
    1950          3.9    1.3961359    2.0935834   -4.2667713   -2.1731879    1.3351638 
    2000            4    1.4044372    2.1060315   -4.2787375   -2.1727059    1.2910297 
    2050          4.1    1.3836495    2.0748593   -4.2475094   -2.1726501    1.4134312 
    2100          4.2    1.4131226    2.1190558   -4.2920534   -2.1729975    1.2814115 
    2150          4.3    1.3907733    2.0855418   -4.2585955   -2.1730537    1.3498246 
    2200          4.4    1.3749539    2.0618198   -4.2350908    -2.173271    1.4149681 
    2250          4.5    1.3873669    2.0804338   -4.2538176   -2.1733838    1.3632567 
    2300          4.6    1.3897096    2.0839467    -4.257084   -2.1731373    1.3769909 
    2350          4.7    1.3830586    2.0739731   -4.2476128   -2.1736397     1.430968 
    2400          4.8    1.4035109    2.1046426   -4.2778211   -2.1731785    1.3253433 
    2450          4.9     1.408021    2.1114058   -4.2841263   -2.1727205     1.273424 
    2500            5    1.4006716    2.1003849   -4.2731009    -2.172716    1.3113098 
Loop time of 9.24345 on 1 procs for 2500 steps with 3375 atoms

Performance: 46735.781 tau/day, 270.462 timesteps/s
99.8% CPU use with 1 MPI tasks x no OpenMP threads

MPI task timing breakdown:
Section |  min time  |  avg time  |  max time  |%varavg| %total
---------------------------------------------------------------
Pair    | 8.1664     | 8.1664     | 8.1664     |   0.0 | 88.35
Neigh   | 0.78009    | 0.78009    | 0.78009    |   0.0 |  8.44
Comm    | 0.10654    | 0.10654    | 0.10654    |   0.0 |  1.15
Output  | 0.00081287 | 0.00081287 | 0.00081287 |   0.0 |  0.01
Modify  | 0.1643     | 0.1643     | 0.1643     |   0.0 |  1.78
Other   |            | 0.02534    |            |       |  0.27

Nlocal:        3375.00 ave        3375 max        3375 min
Histogram: 1 0 0 0 0 0 0 0 0 0
Nghost:        5529.00 ave        5529 max        5529 min
Histogram: 1 0 0 0 0 0 0 0 0 0
Neighs:        169195.0 ave      169195 max      169195 min
Histogram: 1 0 0 0 0 0 0 0 0 0

Total # of neighbors = 169195
Ave neighs/atom = 50.131852
Neighbor list builds = 125
Dangerous builds not checked
variable        diff_accum equal ${diff_accum}+${diff_integ}/(3*${loop_iterations})
variable        diff_accum equal 0.056467698995055+${diff_integ}/(3*${loop_iterations})
variable        diff_accum equal 0.056467698995055+0.56976803556724/(3*${loop_iterations})
variable        diff_accum equal 0.056467698995055+0.56976803556724/(3*25)
unfix           fixVACF
write_data      liquid.T${temp}.rho${rho}.data
write_data      liquid.T1.4.rho${rho}.data
write_data      liquid.T1.4.rho0.67.data
System init for write_data ...
print           "" append log.vacf.T${temp}.rho${rho}.txt screen no
print           "" append log.vacf.T1.4.rho${rho}.txt screen no
print           "" append log.vacf.T1.4.rho0.67.txt screen no

next            loop_counter
jump            SELF loop
clear

pair_style	lj/smooth 2.5 3.0

read_data       liquid.T${temp}.rho${rho}.data
read_data       liquid.T1.4.rho${rho}.data
read_data       liquid.T1.4.rho0.67.data
Reading data file ...
  orthogonal box = (0.0000000 0.0000000 0.0000000) to (17.142191 17.142191 17.142191)
  1 by 1 by 1 MPI processor grid
  reading atoms ...
  3375 atoms
  reading velocities ...
  3375 velocities
  read_data CPU = 0.009 seconds

neighbor	0.3 bin
neigh_modify	every 20 delay 0 check no

fix		1 all nve
timestep        0.002
thermo		50

reset_timestep  0
compute         myVACF all vacf

fix             fixVACF all vector 1 c_myVACF[4]
variable        diff_integ equal dt*trap(f_fixVACF)
variable        curVACF equal c_myVACF[4]

variable        step0 equal step
variable        step0 equal $(v_step0)
variable        step0 equal 0
variable        dtime equal (step-${step0})*dt
variable        dtime equal (step-0)*dt
fix             print_vacf all print 2 "${dtime} ${curVACF} ${diff_integ}" append log.vacf.T${temp}.rho${rho}.txt screen no
fix             print_vacf all print 2 "${dtime} ${curVACF} ${diff_integ}" append log.vacf.T1.4.rho${rho}.txt screen no
fix             print_vacf all print 2 "${dtime} ${curVACF} ${diff_integ}" append log.vacf.T1.4.rho0.67.txt screen no
thermo_style	custom step time temp ke pe etotal press

run             ${loop_length}
run             2500
Neighbor list info ...
  update every 20 steps, delay 0 steps, check no
  max neighbors/atom: 2000, page size: 100000
  master list distance cutoff = 3.3
  ghost atom cutoff = 3.3
  binsize = 1.65, bins = 11 11 11
  1 neighbor lists, perpetual/occasional/extra = 1 0 0
  (1) pair lj/smooth, perpetual
      attributes: half, newton on
      pair build: half/bin/atomonly/newton
      stencil: half/bin/3d
      bin: standard
Per MPI rank memory allocation (min/avg/max) = 3.555 | 3.555 | 3.555 Mbytes
Step Time Temp KinEng PotEng TotEng Press 
       0            0    1.4006716    2.1003849   -4.2731009    -2.172716    1.3113098 
      50          0.1    1.3784435    2.0670526   -4.2398947   -2.1728421    1.4260023 
     100          0.2     1.419078    2.1279863   -4.3009484   -2.1729621    1.1918911 
     150          0.3    1.3962309    2.0937257   -4.2665939   -2.1728682    1.3093784 
     200          0.4    1.3891919    2.0831704    -4.255939   -2.1727686    1.3557246 
     250          0.5    1.4127931    2.1185618   -4.2918271   -2.1732653    1.2903146 
     300          0.6    1.4061526     2.108604   -4.2821245   -2.1735205    1.3471719 
     350          0.7    1.4076086    2.1107873   -4.2843833    -2.173596    1.3694283 
     400          0.8    1.4105359    2.1151769   -4.2889664   -2.1737894    1.3179455 
     450          0.9    1.4096068    2.1137837    -4.286971   -2.1731873    1.2801367 
     500            1    1.3956213    2.0928117   -4.2662647    -2.173453    1.3585573 
     550          1.1    1.3996863    2.0989074   -4.2722201   -2.1733127    1.2720363 
     600          1.2    1.3842544    2.0757663   -4.2492967   -2.1735303    1.3807384 
     650          1.3    1.3853201    2.0773645   -4.2506051   -2.1732405    1.3976064 
     700          1.4    1.3706559    2.0553746     -4.22865   -2.1732753    1.4914888 
     750          1.5    1.3865286    2.0791766   -4.2522513   -2.1730747    1.4123041 
     800          1.6    1.3888684    2.0826853    -4.255871   -2.1731858    1.3599591 
     850          1.7    1.3931158    2.0890546   -4.2621791   -2.1731245    1.3740357 
     900          1.8    1.4056336    2.1078257   -4.2810666    -2.173241     1.299259 
     950          1.9    1.3973423    2.0953924   -4.2684649   -2.1730726    1.3750775 
    1000            2     1.390777    2.0855474   -4.2580015   -2.1724541     1.435461 
    1050          2.1    1.3983358    2.0968822   -4.2696565   -2.1727743    1.3638329 
    1100          2.2    1.3918536    2.0871618   -4.2602927   -2.1731309    1.3618445 
    1150          2.3    1.3899893    2.0843662   -4.2580341   -2.1736679    1.3812132 
    1200          2.4    1.3964092    2.0939932   -4.2678334   -2.1738402    1.3976328 
    1250          2.5    1.3947567    2.0915152   -4.2653799   -2.1738647    1.3871388 
    1300          2.6    1.3921575    2.0876174   -4.2611648   -2.1735474    1.3704846 
    1350          2.7    1.4018569    2.1021624   -4.2752664   -2.1731041    1.3352165 
    1400          2.8    1.4085704    2.1122296   -4.2855175   -2.1732879    1.3140712 
    1450          2.9    1.3927614    2.0885231   -4.2617506   -2.1732275    1.3624696 
    1500            3    1.3889118    2.0827504   -4.2555934   -2.1728431    1.3947593 
    1550          3.1    1.4027582    2.1035138   -4.2760604   -2.1725466    1.3375453 
    1600          3.2    1.4024966    2.1031215   -4.2761123   -2.1729908    1.3469441 
    1650          3.3    1.3833046    2.0743422   -4.2477066   -2.1733644    1.4213734 
    1700          3.4    1.4091343    2.1130751   -4.2859758   -2.1729007    1.2436697 
    1750          3.5    1.3957701    2.0930349    -4.266215   -2.1731801    1.3434759 
[...]
    1850          3.7    1.3998139    2.0990987   -4.2719659   -2.1728672    1.3598491 
    1900          3.8    1.4077669    2.1110246   -4.2836943   -2.1726696    1.2867288 
    1950          3.9    1.4037104    2.1049417   -4.2781657    -2.173224    1.3027275 
    2000            4    1.3943143    2.0908518   -4.2640251   -2.1731733    1.3637966 
    2050          4.1     1.405229    2.1072189   -4.2802499    -2.173031    1.2827252 
    2100          4.2    1.3782338    2.0667381   -4.2392262   -2.1724881    1.3767186 
    2150          4.3    1.4027507    2.1035026   -4.2764321   -2.1729295    1.2523255 
    2200          4.4    1.3890823    2.0830061   -4.2557357   -2.1727296    1.3162529 
    2250          4.5    1.3779561    2.0663217   -4.2393185   -2.1729969    1.3807418 
    2300          4.6    1.3771908    2.0651741   -4.2380657   -2.1728916    1.4112575 
    2350          4.7    1.3921434    2.0875963   -4.2601301   -2.1725338    1.3353122 
    2400          4.8    1.4046508    2.1063519   -4.2791628   -2.1728109    1.2750012 
    2450          4.9    1.3795218    2.0686695   -4.2418565   -2.1731869    1.3969885 
    2500            5    1.3995133     2.098648   -4.2718306   -2.1731826    1.2838672 
Loop time of 9.15702 on 1 procs for 2500 steps with 3375 atoms

Performance: 47176.930 tau/day, 273.015 timesteps/s
99.8% CPU use with 1 MPI tasks x no OpenMP threads

MPI task timing breakdown:
Section |  min time  |  avg time  |  max time  |%varavg| %total
---------------------------------------------------------------
Pair    | 8.0953     | 8.0953     | 8.0953     |   0.0 | 88.41
Neigh   | 0.76679    | 0.76679    | 0.76679    |   0.0 |  8.37
Comm    | 0.10462    | 0.10462    | 0.10462    |   0.0 |  1.14
Output  | 0.00080696 | 0.00080696 | 0.00080696 |   0.0 |  0.01
Modify  | 0.16379    | 0.16379    | 0.16379    |   0.0 |  1.79
Other   |            | 0.02568    |            |       |  0.28

Nlocal:        3375.00 ave        3375 max        3375 min
Histogram: 1 0 0 0 0 0 0 0 0 0
Nghost:        5652.00 ave        5652 max        5652 min
Histogram: 1 0 0 0 0 0 0 0 0 0
Neighs:        169082.0 ave      169082 max      169082 min
Histogram: 1 0 0 0 0 0 0 0 0 0

Total # of neighbors = 169082
Ave neighs/atom = 50.098370
Neighbor list builds = 125
Dangerous builds not checked
variable        diff_accum equal ${diff_accum}+${diff_integ}/(3*${loop_iterations})
variable        diff_accum equal 0.157080351436417+${diff_integ}/(3*${loop_iterations})
variable        diff_accum equal 0.157080351436417+0.531673058803522/(3*${loop_iterations})
variable        diff_accum equal 0.157080351436417+0.531673058803522/(3*25)
unfix           fixVACF
write_data      liquid.T${temp}.rho${rho}.data
write_data      liquid.T1.4.rho${rho}.data
write_data      liquid.T1.4.rho0.67.data
System init for write_data ...
print           "" append log.vacf.T${temp}.rho${rho}.txt screen no
print           "" append log.vacf.T1.4.rho${rho}.txt screen no
print           "" append log.vacf.T1.4.rho0.67.txt screen no

next            loop_counter
jump            SELF loop
clear

pair_style	lj/smooth 2.5 3.0

read_data       liquid.T${temp}.rho${rho}.data
read_data       liquid.T1.4.rho${rho}.data
read_data       liquid.T1.4.rho0.67.data
Reading data file ...
  orthogonal box = (0.0000000 0.0000000 0.0000000) to (17.142191 17.142191 17.142191)
  1 by 1 by 1 MPI processor grid
  reading atoms ...
  3375 atoms
  reading velocities ...
  3375 velocities
  read_data CPU = 0.009 seconds

neighbor	0.3 bin
neigh_modify	every 20 delay 0 check no

fix		1 all nve
timestep        0.002
thermo		50

reset_timestep  0
compute         myVACF all vacf

fix             fixVACF all vector 1 c_myVACF[4]
variable        diff_integ equal dt*trap(f_fixVACF)
variable        curVACF equal c_myVACF[4]

variable        step0 equal step
variable        step0 equal $(v_step0)
variable        step0 equal 0
variable        dtime equal (step-${step0})*dt
variable        dtime equal (step-0)*dt
fix             print_vacf all print 2 "${dtime} ${curVACF} ${diff_integ}" append log.vacf.T${temp}.rho${rho}.txt screen no
fix             print_vacf all print 2 "${dtime} ${curVACF} ${diff_integ}" append log.vacf.T1.4.rho${rho}.txt screen no
fix             print_vacf all print 2 "${dtime} ${curVACF} ${diff_integ}" append log.vacf.T1.4.rho0.67.txt screen no
thermo_style	custom step time temp ke pe etotal press

run             ${loop_length}
run             2500
Neighbor list info ...
  update every 20 steps, delay 0 steps, check no
  max neighbors/atom: 2000, page size: 100000
  master list distance cutoff = 3.3
  ghost atom cutoff = 3.3
  binsize = 1.65, bins = 11 11 11
  1 neighbor lists, perpetual/occasional/extra = 1 0 0
  (1) pair lj/smooth, perpetual
      attributes: half, newton on
      pair build: half/bin/atomonly/newton
      stencil: half/bin/3d
      bin: standard
Per MPI rank memory allocation (min/avg/max) = 3.561 | 3.561 | 3.561 Mbytes
Step Time Temp KinEng PotEng TotEng Press 
       0            0    1.3995133     2.098648   -4.2718306   -2.1731826    1.2838672 
      50          0.1    1.3879178    2.0812599   -4.2541328   -2.1728729     1.354157 
     100          0.2    1.3793844    2.0684636   -4.2415424   -2.1730788    1.3723713 
     150          0.3    1.4016366    2.1018319   -4.2748752   -2.1730433    1.2363393 
     200          0.4    1.4078275    2.1111155   -4.2839125    -2.172797    1.2356701 
     250          0.5    1.3889813    2.0828547   -4.2552928   -2.1724381    1.3613073 
     300          0.6    1.4051748    2.1071376   -4.2799759   -2.1728383     1.282743 
     350          0.7    1.4039757    2.1053396   -4.2789459   -2.1736063    1.2653118 
     400          0.8    1.3913447    2.0863987   -4.2598426   -2.1734438    1.3141376 
     450          0.9     1.410571    2.1152297   -4.2881684   -2.1729388    1.2477186 
     500            1    1.4036619     2.104869   -4.2778354   -2.1729664     1.330997 
     550          1.1    1.4228908    2.1337038   -4.3064579   -2.1727542    1.2406197 
     600          1.2    1.3961326    2.0935784   -4.2664764   -2.1728979    1.3835968 
     650          1.3    1.3857961    2.0780783   -4.2510834   -2.1730051     1.398842 
     700          1.4    1.3939429    2.0902949   -4.2629444   -2.1726495    1.3437663 
     750          1.5     1.416339     2.123879   -4.2963359   -2.1724568    1.2415038 
     800          1.6    1.4026773    2.1033926   -4.2759682   -2.1725756    1.3054744 
     850          1.7    1.4106319    2.1153209   -4.2880206   -2.1726997    1.2768778 
     900          1.8    1.4107803    2.1155435   -4.2885355    -2.172992    1.2606053 
     950          1.9    1.4156038    2.1227765   -4.2957747   -2.1729982    1.2140542 
    1000            2     1.391134    2.0860827   -4.2590433   -2.1729606    1.3910568 
    1050          2.1    1.4110675    2.1159741   -4.2890599   -2.1730858     1.290442 
    1100          2.2    1.3994898    2.0986127   -4.2714493   -2.1728366    1.3476297 
    1150          2.3    1.4256292    2.1378102   -4.3108593   -2.1730491    1.2187582 
    1200          2.4    1.4140341    2.1204227   -4.2939509   -2.1735282    1.2798617 
    1250          2.5    1.3942552    2.0907631   -4.2641334   -2.1733704    1.4011672 
    1300          2.6    1.3837664    2.0750347   -4.2482551   -2.1732204    1.4267798 
    1350          2.7     1.401993    2.1023664   -4.2754833   -2.1731169    1.3399708 
    1400          2.8    1.4020817    2.1024993     -4.27597   -2.1734707    1.3045133 
    1450          2.9    1.3827252    2.0734733   -4.2468098   -2.1733365    1.4157794 
    1500            3    1.3869994    2.0798826   -4.2528583   -2.1729757    1.3896177 
    1550          3.1    1.4092634    2.1132688   -4.2864876   -2.1732188    1.2716878 
    1600          3.2    1.3844697    2.0760893     -4.24955   -2.1734608    1.4024677 
    1650          3.3    1.4151449    2.1220884   -4.2949741   -2.1728857    1.2526754 
    1700          3.4    1.3899832     2.084357   -4.2572975   -2.1729405    1.3654056 
    1750          3.5    1.4060858    2.1085038   -4.2813365   -2.1728327    1.2494304 
    1800          3.6    1.3953359    2.0923837   -4.2653339   -2.1729502    1.3063631 
    1850          3.7    1.3962837     2.093805   -4.2667435   -2.1729384    1.2640441 
    1900          3.8     1.398528    2.0971705   -4.2700812   -2.1729107    1.2893911 
    1950          3.9    1.4000276    2.0994192   -4.2722982    -2.172879    1.3255472 
    2000            4    1.4052638    2.1072711   -4.2800432   -2.1727722    1.2734996 
    2050          4.1    1.3850673    2.0769853   -4.2496672   -2.1726818    1.3710015 
    2100          4.2    1.3971469    2.0950994   -4.2681029   -2.1730036    1.3310791 
    2150          4.3    1.3836974    2.0749312   -4.2480263   -2.1730951    1.3735878 
    2200          4.4     1.392312    2.0878492   -4.2609639   -2.1731147    1.3400603 
    2250          4.5    1.3986754    2.0973915   -4.2703099   -2.1729184    1.2940866 
    2300          4.6     1.404768    2.1065276   -4.2794579   -2.1729302    1.2785422 
    2350          4.7    1.3978357    2.0961324   -4.2693538   -2.1732215    1.2969389 
    2400          4.8    1.3933858    2.0894594   -4.2624902   -2.1730308    1.3394785 
    2450          4.9    1.3897086    2.0839452   -4.2571608   -2.1732155    1.3942332 
    2500            5    1.3893966    2.0834775   -4.2567212   -2.1732437    1.3603479 
Loop time of 9.14029 on 1 procs for 2500 steps with 3375 atoms

Performance: 47263.259 tau/day, 273.514 timesteps/s
99.7% CPU use with 1 MPI tasks x no OpenMP threads

MPI task timing breakdown:
Section |  min time  |  avg time  |  max time  |%varavg| %total
---------------------------------------------------------------
Pair    | 8.0836     | 8.0836     | 8.0836     |   0.0 | 88.44
Neigh   | 0.76125    | 0.76125    | 0.76125    |   0.0 |  8.33
Comm    | 0.10411    | 0.10411    | 0.10411    |   0.0 |  1.14
Output  | 0.00080586 | 0.00080586 | 0.00080586 |   0.0 |  0.01
Modify  | 0.16486    | 0.16486    | 0.16486    |   0.0 |  1.80
Other   |            | 0.02571    |            |       |  0.28

Nlocal:        3375.00 ave        3375 max        3375 min
Histogram: 1 0 0 0 0 0 0 0 0 0
Nghost:        5589.00 ave        5589 max        5589 min
Histogram: 1 0 0 0 0 0 0 0 0 0
Neighs:        169027.0 ave      169027 max      169027 min
Histogram: 1 0 0 0 0 0 0 0 0 0

Total # of neighbors = 169027
Ave neighs/atom = 50.082074
Neighbor list builds = 125
Dangerous builds not checked
variable        diff_accum equal ${diff_accum}+${diff_integ}/(3*${loop_iterations})
variable        diff_accum equal 0.164169325553797+${diff_integ}/(3*${loop_iterations})
variable        diff_accum equal 0.164169325553797+0.529220755494235/(3*${loop_iterations})
variable        diff_accum equal 0.164169325553797+0.529220755494235/(3*25)
unfix           fixVACF
write_data      liquid.T${temp}.rho${rho}.data
write_data      liquid.T1.4.rho${rho}.data
write_data      liquid.T1.4.rho0.67.data
System init for write_data ...
print           "" append log.vacf.T${temp}.rho${rho}.txt screen no
print           "" append log.vacf.T1.4.rho${rho}.txt screen no
print           "" append log.vacf.T1.4.rho0.67.txt screen no

next            loop_counter
jump            SELF loop
clear

pair_style	lj/smooth 2.5 3.0

read_data       liquid.T${temp}.rho${rho}.data
read_data       liquid.T1.4.rho${rho}.data
read_data       liquid.T1.4.rho0.67.data
Reading data file ...
  orthogonal box = (0.0000000 0.0000000 0.0000000) to (17.142191 17.142191 17.142191)
  1 by 1 by 1 MPI processor grid
  reading atoms ...
  3375 atoms
  reading velocities ...
  3375 velocities
  read_data CPU = 0.009 seconds

neighbor	0.3 bin
neigh_modify	every 20 delay 0 check no

fix		1 all nve
timestep        0.002
thermo		50

reset_timestep  0
compute         myVACF all vacf

fix             fixVACF all vector 1 c_myVACF[4]
variable        diff_integ equal dt*trap(f_fixVACF)
variable        curVACF equal c_myVACF[4]

variable        step0 equal step
variable        step0 equal $(v_step0)
variable        step0 equal 0
variable        dtime equal (step-${step0})*dt
variable        dtime equal (step-0)*dt
fix             print_vacf all print 2 "${dtime} ${curVACF} ${diff_integ}" append log.vacf.T${temp}.rho${rho}.txt screen no
fix             print_vacf all print 2 "${dtime} ${curVACF} ${diff_integ}" append log.vacf.T1.4.rho${rho}.txt screen no
fix             print_vacf all print 2 "${dtime} ${curVACF} ${diff_integ}" append log.vacf.T1.4.rho0.67.txt screen no
thermo_style	custom step time temp ke pe etotal press

run             ${loop_length}
run             2500
Neighbor list info ...
  update every 20 steps, delay 0 steps, check no
  max neighbors/atom: 2000, page size: 100000
  master list distance cutoff = 3.3
  ghost atom cutoff = 3.3
  binsize = 1.65, bins = 11 11 11
  1 neighbor lists, perpetual/occasional/extra = 1 0 0
  (1) pair lj/smooth, perpetual
      attributes: half, newton on
      pair build: half/bin/atomonly/newton
      stencil: half/bin/3d
      bin: standard
Per MPI rank memory allocation (min/avg/max) = 3.555 | 3.555 | 3.555 Mbytes
Step Time Temp KinEng PotEng TotEng Press 
       0            0    1.3893966    2.0834775   -4.2567212   -2.1732437    1.3603479 
      50          0.1    1.3838247    2.0751221   -4.2483942   -2.1732722    1.3853318 
     100          0.2    1.3971243    2.0950655   -4.2685156   -2.1734501    1.3123267 
     150          0.3    1.3958523     2.093158   -4.2663634   -2.1732054     1.323301 
     200          0.4    1.3858069    2.0780944    -4.251508   -2.1734136    1.4067448 
     250          0.5    1.3686073    2.0523027   -4.2256405   -2.1733378    1.4952204 
     300          0.6    1.3807586    2.0705243   -4.2435644   -2.1730401    1.4244598 
     350          0.7     1.390052    2.0844601   -4.2571624   -2.1727023    1.3486833 
     400          0.8    1.3925131    2.0881507    -4.260975   -2.1728243    1.3042417 
     450          0.9    1.3994954    2.0986211   -4.2714889   -2.1728678    1.2568153 
     500            1     1.395252    2.0922578    -4.265035   -2.1727771    1.3107251 
     550          1.1    1.3810173    2.0709122   -4.2440832    -2.173171    1.4190402 
     600          1.2    1.3965899    2.0942642   -4.2673484   -2.1730842    1.3561354 
     650          1.3    1.3884182    2.0820102   -4.2550366   -2.1730264    1.4259281 
     700          1.4    1.3950396    2.0919394   -4.2650113   -2.1730719    1.3821061 
     750          1.5    1.4013198    2.1013569   -4.2740581   -2.1727012    1.2890248 
     800          1.6    1.3777965    2.0660823   -4.2389769   -2.1728946    1.3658338 
     850          1.7    1.4086033    2.1122788   -4.2848552   -2.1725764    1.2598402 
     900          1.8    1.4041713    2.1056328   -4.2787253   -2.1730924    1.2955983 
     950          1.9    1.4149358    2.1217748   -4.2946573   -2.1728825     1.247286 
    1000            2    1.3793973    2.0684829   -4.2416785   -2.1731956    1.4431669 
    1050          2.1     1.404912    2.1067436   -4.2797873   -2.1730437    1.3009416 
    1100          2.2    1.4057076    2.1079367   -4.2807234   -2.1727867     1.315153 
    1150          2.3    1.4179674     2.126321   -4.2992771   -2.1729561    1.2436175 
    1200          2.4    1.3923644    2.0879277   -4.2606764   -2.1727487    1.3595133 
    1250          2.5    1.3740333    2.0604392    -4.233615   -2.1731757    1.4559972 
    1300          2.6    1.3933454    2.0893988   -4.2626101   -2.1732113     1.356151 
    1350          2.7    1.3697419    2.0540041   -4.2270531    -2.173049    1.4699391 
    1400          2.8    1.3969091    2.0947427   -4.2675763   -2.1728336    1.3166014 
    1450          2.9    1.4145875    2.1212525   -4.2944614   -2.1732089    1.2504608 
    1500            3    1.3983797    2.0969481    -4.270045   -2.1730969    1.3317258 
    1550          3.1    1.4149556    2.1218045   -4.2948165    -2.173012    1.2557923 
    1600          3.2    1.3930836    2.0890063   -4.2619888   -2.1729825    1.3659228 
    1650          3.3    1.3935101    2.0896458   -4.2622329    -2.172587    1.3739108 
    1700          3.4    1.3991669    2.0981285    -4.270932   -2.1728035    1.3434885 
    1750          3.5    1.3931081    2.0890429   -4.2625303   -2.1734873    1.3527034 
    1800          3.6    1.4013712     2.101434   -4.2747728   -2.1733388    1.2846668 
    1850          3.7    1.3942703    2.0907858   -4.2641172   -2.1733313    1.3384415 
    1900          3.8    1.3877267    2.0809732   -4.2541451   -2.1731718    1.3692288 
    1950          3.9    1.3932848    2.0893079   -4.2622571   -2.1729492    1.3303414 
    2000            4    1.3889177    2.0827593   -4.2555089   -2.1727496    1.3522807 
    2050          4.1    1.4028066    2.1035864   -4.2758035   -2.1722171    1.2555393 
    2100          4.2    1.3980319    2.0964265   -4.2685787   -2.1721521    1.3069546 
    2150          4.3    1.3942535    2.0907606   -4.2636207   -2.1728602    1.3264577 
    2200          4.4    1.4051064    2.1070351   -4.2802192   -2.1731842    1.3115233 
    2250          4.5    1.3957376     2.092986   -4.2662358   -2.1732498    1.3623573 
    2300          4.6    1.3676323    2.0508407   -4.2237149   -2.1728742    1.4900959 
    2350          4.7    1.3966623    2.0943726   -4.2676946    -2.173322    1.3336068 
    2400          4.8    1.3966575    2.0943655   -4.2674208   -2.1730553    1.3046276 
    2450          4.9    1.3892487    2.0832557   -4.2560655   -2.1728099    1.3767642 
    2500            5    1.3975536    2.0957093   -4.2687868   -2.1730774    1.3410012 
Loop time of 9.17447 on 1 procs for 2500 steps with 3375 atoms

Performance: 47087.195 tau/day, 272.495 timesteps/s
99.7% CPU use with 1 MPI tasks x no OpenMP threads

MPI task timing breakdown:
Section |  min time  |  avg time  |  max time  |%varavg| %total
---------------------------------------------------------------
Pair    | 8.1133     | 8.1133     | 8.1133     |   0.0 | 88.43
Neigh   | 0.76671    | 0.76671    | 0.76671    |   0.0 |  8.36
Comm    | 0.10475    | 0.10475    | 0.10475    |   0.0 |  1.14
Output  | 0.00079664 | 0.00079664 | 0.00079664 |   0.0 |  0.01
Modify  | 0.16317    | 0.16317    | 0.16317    |   0.0 |  1.78
Other   |            | 0.02575    |            |       |  0.28

Nlocal:        3375.00 ave        3375 max        3375 min
Histogram: 1 0 0 0 0 0 0 0 0 0
Nghost:        5613.00 ave        5613 max        5613 min
Histogram: 1 0 0 0 0 0 0 0 0 0
Neighs:        169090.0 ave      169090 max      169090 min
Histogram: 1 0 0 0 0 0 0 0 0 0

Total # of neighbors = 169090
Ave neighs/atom = 50.100741
Neighbor list builds = 125
Dangerous builds not checked
variable        diff_accum equal ${diff_accum}+${diff_integ}/(3*${loop_iterations})
variable        diff_accum equal 0.17122560229372+${diff_integ}/(3*${loop_iterations})
variable        diff_accum equal 0.17122560229372+0.48667540229887/(3*${loop_iterations})
variable        diff_accum equal 0.17122560229372+0.48667540229887/(3*25)
unfix           fixVACF
write_data      liquid.T${temp}.rho${rho}.data
write_data      liquid.T1.4.rho${rho}.data
write_data      liquid.T1.4.rho0.67.data
System init for write_data ...
print           "" append log.vacf.T${temp}.rho${rho}.txt screen no
print           "" append log.vacf.T1.4.rho${rho}.txt screen no
print           "" append log.vacf.T1.4.rho0.67.txt screen no

next            loop_counter
jump            SELF loop

print           "Diffusivity estimate (GK): ${diff_accum}" append log.vacf.T${temp}.rho${rho}.txt
print           "Diffusivity estimate (GK): ${diff_accum}" append log.vacf.T1.4.rho${rho}.txt
print           "Diffusivity estimate (GK): ${diff_accum}" append log.vacf.T1.4.rho0.67.txt
Diffusivity estimate (GK): 0.177714607657705
Total wall time: 0:03:50
