shell           rm log.vacf.T${temp}.rho${rho}.txt
shell           rm log.vacf.T1.5.rho${rho}.txt
shell           rm log.vacf.T1.5.rho0.67.txt
WARNING: Shell command 'rm' failed with error 'No such file or directory' (../input.cpp:1234)
units		lj
atom_style	atomic

variable        loop_counter loop ${loop_iterations}
variable        loop_counter loop 25
variable        diff_accum equal 0

label           loop
clear

pair_style	lj/smooth 2.5 3.0

read_data       liquid.T${temp}.rho${rho}.data
read_data       liquid.T1.5.rho${rho}.data
read_data       liquid.T1.5.rho0.67.data
Reading data file ...
  orthogonal box = (0.0000000 0.0000000 0.0000000) to (17.142191 17.142191 17.142191)
  1 by 1 by 1 MPI processor grid
  reading atoms ...
  3375 atoms
  reading velocities ...
  3375 velocities
  read_data CPU = 0.010 seconds

neighbor	0.3 bin
neigh_modify	every 20 delay 0 check no

fix		1 all nve
timestep        0.002
thermo		50

reset_timestep  0
compute         myVACF all vacf

fix             fixVACF all vector 1 c_myVACF[4]
variable        diff_integ equal dt*trap(f_fixVACF)
variable        curVACF equal c_myVACF[4]

variable        step0 equal step
variable        step0 equal $(v_step0)
variable        step0 equal 0
variable        dtime equal (step-${step0})*dt
variable        dtime equal (step-0)*dt
fix             print_vacf all print 2 "${dtime} ${curVACF} ${diff_integ}" append log.vacf.T${temp}.rho${rho}.txt screen no
fix             print_vacf all print 2 "${dtime} ${curVACF} ${diff_integ}" append log.vacf.T1.5.rho${rho}.txt screen no
fix             print_vacf all print 2 "${dtime} ${curVACF} ${diff_integ}" append log.vacf.T1.5.rho0.67.txt screen no
thermo_style	custom step time temp ke pe etotal press

run             ${loop_length}
run             2500
Neighbor list info ...
  update every 20 steps, delay 0 steps, check no
  max neighbors/atom: 2000, page size: 100000
  master list distance cutoff = 3.3
  ghost atom cutoff = 3.3
  binsize = 1.65, bins = 11 11 11
  1 neighbor lists, perpetual/occasional/extra = 1 0 0
  (1) pair lj/smooth, perpetual
      attributes: half, newton on
      pair build: half/bin/atomonly/newton
      stencil: half/bin/3d
      bin: standard
Per MPI rank memory allocation (min/avg/max) = 3.558 | 3.558 | 3.558 Mbytes
Step Time Temp KinEng PotEng TotEng Press 
       0            0     1.494542    2.2411487   -4.2368351   -1.9956864    1.5542119 
      50          0.1    1.4836851    2.2248682   -4.2206538   -1.9957856    1.5967596 
     100          0.2    1.4814816    2.2215639   -4.2174032   -1.9958393    1.5882474 
     150          0.3    1.4785116    2.2171102   -4.2128265   -1.9957163     1.585868 
     200          0.4    1.4737192    2.2099238   -4.2054314   -1.9955077    1.6289875 
     250          0.5      1.50093    2.2507279   -4.2462197   -1.9954918    1.4821739 
     300          0.6    1.4914824    2.2365608   -4.2320607   -1.9954999    1.4818757 
     350          0.7    1.4879157    2.2312123   -4.2271943   -1.9959819    1.5023234 
     400          0.8    1.4742905    2.2107805    -4.206391   -1.9956105    1.5920927 
     450          0.9    1.4860454    2.2284077   -4.2240731   -1.9956654    1.5859157 
     500            1    1.4888665     2.232638    -4.228329    -1.995691    1.5218481 
     550          1.1    1.4777485     2.215966   -4.2116608   -1.9956948    1.5746225 
     600          1.2    1.4914922    2.2365755   -4.2326746   -1.9960991    1.5251221 
     650          1.3    1.4833892    2.2244245   -4.2207393   -1.9963147    1.6065558 
     700          1.4    1.4913252    2.2363249   -4.2322918   -1.9959669    1.5869928 
     750          1.5    1.4834209    2.2244721   -4.2199825   -1.9955105    1.5641779 
     800          1.6    1.4892843    2.2332646   -4.2288646      -1.9956    1.4950338 
     850          1.7    1.5005192     2.250112   -4.2454555   -1.9953435    1.4647086 
     900          1.8    1.4854477    2.2275114   -4.2228163   -1.9953049    1.5322785 
     950          1.9    1.4761326    2.2135429   -4.2090917   -1.9955488    1.5754483 
    1000            2    1.4829065    2.2237007   -4.2192309   -1.9955302    1.5446449 
    1050          2.1    1.4746863     2.211374   -4.2071031   -1.9957291     1.605542 
    1100          2.2     1.497871    2.2461408   -4.2420702   -1.9959294    1.4989989 
    1150          2.3    1.4768766    2.2146585   -4.2105726   -1.9959141    1.6325162 
    1200          2.4    1.4913065     2.236297   -4.2320857   -1.9957888    1.5634312 
    1250          2.5     1.461085    2.1909781   -4.1868945   -1.9959164    1.7102681 
    1300          2.6    1.4895587     2.233676   -4.2297316   -1.9960556    1.5847735 
    1350          2.7     1.469335    2.2033494   -4.1990094     -1.99566    1.6645816 
    1400          2.8    1.4680185    2.2013753   -4.1966207   -1.9952454    1.6583338 
    1450          2.9     1.484932    2.2267381   -4.2218015   -1.9950634    1.5542633 
    1500            3    1.4763864    2.2139234   -4.2093273    -1.995404    1.5886767 
    1550          3.1    1.4814981    2.2215887   -4.2174231   -1.9958344    1.5560644 
    1600          3.2    1.4789892    2.2178265   -4.2134212   -1.9955946    1.5800482 
    1650          3.3    1.4665647    2.1991952   -4.1948944   -1.9956993    1.6135589 
    1700          3.4    1.4863347    2.2288415   -4.2249915     -1.99615    1.5135408 
    1750          3.5     1.493405    2.2394437   -4.2354539   -1.9960102    1.5080988 
    1800          3.6    1.4695991    2.2037455   -4.2001345    -1.996389    1.6548693 
    1850          3.7     1.482915    2.2237134   -4.2196438   -1.9959304    1.5621138 
    1900          3.8    1.4924951    2.2380794   -4.2341926   -1.9961133    1.5172396 
    1950          3.9     1.493075    2.2389489   -4.2348693   -1.9959204    1.5065402 
    2000            4    1.4840288    2.2253836   -4.2215468   -1.9961632    1.5720842 
    2050          4.1     1.499622    2.2487664   -4.2446652   -1.9958988    1.5486699 
    2100          4.2    1.4835547    2.2246726    -4.220497   -1.9958244    1.6069677 
    2150          4.3    1.4899525    2.2342665   -4.2301477   -1.9958812    1.5453518 
    2200          4.4    1.4839055    2.2251988   -4.2210874   -1.9958886    1.5797913 
    2250          4.5    1.4846677    2.2263417   -4.2220071   -1.9956654    1.5890124 
    2300          4.6    1.4680897     2.201482   -4.1972197   -1.9957377    1.6486451 
    2350          4.7    1.4765327    2.2141427   -4.2099487    -1.995806    1.5982559 
    2400          4.8    1.4907493    2.2354614   -4.2311829   -1.9957214    1.5347869 
    2450          4.9     1.456175    2.1836153   -4.1792425   -1.9956272    1.6974728 
    2500            5    1.4787903    2.2175282   -4.2127181     -1.99519     1.582955 
Loop time of 9.24099 on 1 procs for 2500 steps with 3375 atoms

Performance: 46748.256 tau/day, 270.534 timesteps/s
99.7% CPU use with 1 MPI tasks x no OpenMP threads

MPI task timing breakdown:
Section |  min time  |  avg time  |  max time  |%varavg| %total
---------------------------------------------------------------
Pair    | 8.1689     | 8.1689     | 8.1689     |   0.0 | 88.40
Neigh   | 0.773      | 0.773      | 0.773      |   0.0 |  8.36
Comm    | 0.10528    | 0.10528    | 0.10528    |   0.0 |  1.14
Output  | 0.00081892 | 0.00081892 | 0.00081892 |   0.0 |  0.01
Modify  | 0.16729    | 0.16729    | 0.16729    |   0.0 |  1.81
Other   |            | 0.02564    |            |       |  0.28

Nlocal:        3375.00 ave        3375 max        3375 min
Histogram: 1 0 0 0 0 0 0 0 0 0
Nghost:        5609.00 ave        5609 max        5609 min
Histogram: 1 0 0 0 0 0 0 0 0 0
Neighs:        169198.0 ave      169198 max      169198 min
Histogram: 1 0 0 0 0 0 0 0 0 0

Total # of neighbors = 169198
Ave neighs/atom = 50.132741
Neighbor list builds = 125
Dangerous builds not checked
variable        diff_accum equal ${diff_accum}+${diff_integ}/(3*${loop_iterations})
variable        diff_accum equal 0+${diff_integ}/(3*${loop_iterations})
variable        diff_accum equal 0+0.625006766472613/(3*${loop_iterations})
variable        diff_accum equal 0+0.625006766472613/(3*25)
unfix           fixVACF
write_data      liquid.T${temp}.rho${rho}.data
write_data      liquid.T1.5.rho${rho}.data
write_data      liquid.T1.5.rho0.67.data
System init for write_data ...
print           "" append log.vacf.T${temp}.rho${rho}.txt screen no
print           "" append log.vacf.T1.5.rho${rho}.txt screen no
print           "" append log.vacf.T1.5.rho0.67.txt screen no

next            loop_counter
jump            SELF loop
clear

pair_style	lj/smooth 2.5 3.0

read_data       liquid.T${temp}.rho${rho}.data
read_data       liquid.T1.5.rho${rho}.data
read_data       liquid.T1.5.rho0.67.data
Reading data file ...
  orthogonal box = (0.0000000 0.0000000 0.0000000) to (17.142191 17.142191 17.142191)
  1 by 1 by 1 MPI processor grid
  reading atoms ...
  3375 atoms
  reading velocities ...
  3375 velocities
  read_data CPU = 0.009 seconds

neighbor	0.3 bin
neigh_modify	every 20 delay 0 check no

fix		1 all nve
timestep        0.002
thermo		50

reset_timestep  0
compute         myVACF all vacf

fix             fixVACF all vector 1 c_myVACF[4]
variable        diff_integ equal dt*trap(f_fixVACF)
variable        curVACF equal c_myVACF[4]

variable        step0 equal step
variable        step0 equal $(v_step0)
variable        step0 equal 0
variable        dtime equal (step-${step0})*dt
variable        dtime equal (step-0)*dt
fix             print_vacf all print 2 "${dtime} ${curVACF} ${diff_integ}" append log.vacf.T${temp}.rho${rho}.txt screen no
fix             print_vacf all print 2 "${dtime} ${curVACF} ${diff_integ}" append log.vacf.T1.5.rho${rho}.txt screen no
fix             print_vacf all print 2 "${dtime} ${curVACF} ${diff_integ}" append log.vacf.T1.5.rho0.67.txt screen no
thermo_style	custom step time temp ke pe etotal press

run             ${loop_length}
run             2500
Neighbor list info ...
  update every 20 steps, delay 0 steps, check no
  max neighbors/atom: 2000, page size: 100000
  master list distance cutoff = 3.3
  ghost atom cutoff = 3.3
  binsize = 1.65, bins = 11 11 11
  1 neighbor lists, perpetual/occasional/extra = 1 0 0
  (1) pair lj/smooth, perpetual
      attributes: half, newton on
      pair build: half/bin/atomonly/newton
      stencil: half/bin/3d
      bin: standard
Per MPI rank memory allocation (min/avg/max) = 3.556 | 3.556 | 3.556 Mbytes
Step Time Temp KinEng PotEng TotEng Press 
       0            0    1.4787903    2.2175282   -4.2127181     -1.99519     1.582955 
      50          0.1    1.4907319    2.2354353   -4.2308882   -1.9954529    1.5387993 
     100          0.2    1.4728145    2.2085672   -4.2041526   -1.9955854    1.6504858 
     150          0.3    1.4895988    2.2337362   -4.2293117   -1.9955755    1.5400229 
     200          0.4     1.472153    2.2075752   -4.2034258   -1.9958505    1.6041126 
     250          0.5     1.484437    2.2259958   -4.2221112   -1.9961154    1.5225509 
     300          0.6    1.4944978    2.2410826   -4.2367838   -1.9957012    1.4807753 
     350          0.7    1.4688609    2.2026385   -4.1985155   -1.9958771    1.6339598 
     400          0.8    1.4742934    2.2107848    -4.206965   -1.9961801    1.6298586 
     450          0.9    1.4834227    2.2244748   -4.2204624   -1.9959876    1.5731605 
     500            1    1.4817022    2.2218948   -4.2177038    -1.995809    1.5740732 
     550          1.1    1.4767789     2.214512   -4.2103193   -1.9958073    1.5722293 
     600          1.2    1.4691663    2.2030964   -4.1988028   -1.9957063    1.6333542 
     650          1.3    1.5028704    2.2536376   -4.2496182   -1.9959805    1.4783327 
     700          1.4    1.4793166    2.2183175   -4.2146231   -1.9963057    1.6206471 
     750          1.5    1.5065265    2.2591202    -4.255321   -1.9962007    1.4878709 
     800          1.6    1.4903641    2.2348838   -4.2310851   -1.9962013    1.5565696 
     850          1.7    1.4872868    2.2302692   -4.2262427   -1.9959735    1.5732982 
     900          1.8    1.4786462    2.2173122   -4.2128579   -1.9955457    1.6116328 
     950          1.9    1.4912094    2.2361513    -4.231879   -1.9957277    1.5593857 
    1000            2    1.4931051     2.238994   -4.2347882   -1.9957942    1.5249605 
    1050          2.1    1.4943213    2.2408179   -4.2364146   -1.9955967    1.5392247 
    1100          2.2    1.4710202    2.2058765    -4.201552   -1.9956755    1.6448078 
    1150          2.3    1.4900184    2.2343654   -4.2300453   -1.9956799    1.5327152 
    1200          2.4    1.4807664    2.2204915   -4.2161183   -1.9956267    1.5655119 
    1250          2.5    1.4823379     2.222848   -4.2182005   -1.9953525     1.560794 
    1300          2.6    1.4639833    2.1953242   -4.1907112    -1.995387    1.6276504 
    1350          2.7    1.4856666    2.2278396   -4.2234244   -1.9955848    1.5233133 
    1400          2.8    1.4658047    2.1980556   -4.1934225   -1.9953669    1.5926869 
    1450          2.9    1.4745792    2.2112134   -4.2070439   -1.9958306    1.5388569 
    1500            3    1.4756377    2.2128007   -4.2085647    -1.995764    1.5621622 
    1550          3.1    1.4963905    2.2439208   -4.2395396   -1.9956188    1.4806258 
    1600          3.2    1.4699206    2.2042276   -4.2000153   -1.9957877    1.6475241 
    1650          3.3    1.4726036    2.2082509   -4.2044065   -1.9961556    1.6626949 
    1700          3.4    1.4875399    2.2306488    -4.226843   -1.9961942    1.5830763 
    1750          3.5    1.4870913     2.229976   -4.2262629    -1.996287    1.5788299 
    1800          3.6    1.4936835    2.2398614   -4.2359813   -1.9961199    1.5435981 
    1850          3.7    1.4804024    2.2199456   -4.2157639   -1.9958183    1.6017223 
    1900          3.8    1.5031825    2.2541057    -4.250104   -1.9959983    1.5090221 
    1950          3.9    1.4749336    2.2117449   -4.2076072   -1.9958623    1.6673349 
    2000            4    1.4889991    2.2328368   -4.2285882   -1.9957514    1.5990962 
    2050          4.1     1.492599    2.2382351   -4.2340933   -1.9958582    1.5623668 
    2100          4.2    1.4770875    2.2149748   -4.2112404   -1.9962656    1.6130143 
    2150          4.3    1.4883344    2.2318401    -4.227929   -1.9960889    1.5663955 
    2200          4.4    1.4758953    2.2131871   -4.2089818   -1.9957947    1.5793641 
    2250          4.5    1.4768194    2.2145728   -4.2106018    -1.996029    1.5865813 
    2300          4.6    1.4661336    2.1985488   -4.1943611   -1.9958123    1.6162001 
    2350          4.7    1.4769932    2.2148333   -4.2102735   -1.9954402    1.5690505 
    2400          4.8    1.4923177    2.2378133   -4.2336022   -1.9957889     1.476607 
    2450          4.9    1.4833618    2.2243835   -4.2200794   -1.9956959    1.4894688 
    2500            5    1.4725889    2.2082289   -4.2040943   -1.9958654    1.5512253 
Loop time of 9.43048 on 1 procs for 2500 steps with 3375 atoms

Performance: 45808.911 tau/day, 265.098 timesteps/s
99.7% CPU use with 1 MPI tasks x no OpenMP threads

MPI task timing breakdown:
Section |  min time  |  avg time  |  max time  |%varavg| %total
---------------------------------------------------------------
Pair    | 8.3595     | 8.3595     | 8.3595     |   0.0 | 88.64
Neigh   | 0.77152    | 0.77152    | 0.77152    |   0.0 |  8.18
Comm    | 0.10681    | 0.10681    | 0.10681    |   0.0 |  1.13
Output  | 0.00079111 | 0.00079111 | 0.00079111 |   0.0 |  0.01
Modify  | 0.16606    | 0.16606    | 0.16606    |   0.0 |  1.76
Other   |            | 0.02577    |            |       |  0.27

Nlocal:        3375.00 ave        3375 max        3375 min
Histogram: 1 0 0 0 0 0 0 0 0 0
Nghost:        5635.00 ave        5635 max        5635 min
Histogram: 1 0 0 0 0 0 0 0 0 0
Neighs:        169021.0 ave      169021 max      169021 min
Histogram: 1 0 0 0 0 0 0 0 0 0

Total # of neighbors = 169021
Ave neighs/atom = 50.080296
Neighbor list builds = 125
Dangerous builds not checked
variable        diff_accum equal ${diff_accum}+${diff_integ}/(3*${loop_iterations})
variable        diff_accum equal 0.00833342355296817+${diff_integ}/(3*${loop_iterations})
variable        diff_accum equal 0.00833342355296817+0.5385420187986/(3*${loop_iterations})
variable        diff_accum equal 0.00833342355296817+0.5385420187986/(3*25)
unfix           fixVACF
write_data      liquid.T${temp}.rho${rho}.data
write_data      liquid.T1.5.rho${rho}.data
write_data      liquid.T1.5.rho0.67.data
System init for write_data ...
print           "" append log.vacf.T${temp}.rho${rho}.txt screen no
print           "" append log.vacf.T1.5.rho${rho}.txt screen no
print           "" append log.vacf.T1.5.rho0.67.txt screen no

next            loop_counter
jump            SELF loop
clear

pair_style	lj/smooth 2.5 3.0

read_data       liquid.T${temp}.rho${rho}.data
read_data       liquid.T1.5.rho${rho}.data
read_data       liquid.T1.5.rho0.67.data
Reading data file ...
  orthogonal box = (0.0000000 0.0000000 0.0000000) to (17.142191 17.142191 17.142191)
  1 by 1 by 1 MPI processor grid
  reading atoms ...
  3375 atoms
  reading velocities ...
  3375 velocities
  read_data CPU = 0.009 seconds

neighbor	0.3 bin
neigh_modify	every 20 delay 0 check no

fix		1 all nve
timestep        0.002
thermo		50

reset_timestep  0
compute         myVACF all vacf

fix             fixVACF all vector 1 c_myVACF[4]
variable        diff_integ equal dt*trap(f_fixVACF)
variable        curVACF equal c_myVACF[4]

variable        step0 equal step
variable        step0 equal $(v_step0)
variable        step0 equal 0
variable        dtime equal (step-${step0})*dt
variable        dtime equal (step-0)*dt
fix             print_vacf all print 2 "${dtime} ${curVACF} ${diff_integ}" append log.vacf.T${temp}.rho${rho}.txt screen no
fix             print_vacf all print 2 "${dtime} ${curVACF} ${diff_integ}" append log.vacf.T1.5.rho${rho}.txt screen no
fix             print_vacf all print 2 "${dtime} ${curVACF} ${diff_integ}" append log.vacf.T1.5.rho0.67.txt screen no
thermo_style	custom step time temp ke pe etotal press

run             ${loop_length}
run             2500
Neighbor list info ...
  update every 20 steps, delay 0 steps, check no
  max neighbors/atom: 2000, page size: 100000
  master list distance cutoff = 3.3
  ghost atom cutoff = 3.3
  binsize = 1.65, bins = 11 11 11
  1 neighbor lists, perpetual/occasional/extra = 1 0 0
  (1) pair lj/smooth, perpetual
      attributes: half, newton on
      pair build: half/bin/atomonly/newton
      stencil: half/bin/3d
      bin: standard
Per MPI rank memory allocation (min/avg/max) = 3.559 | 3.559 | 3.559 Mbytes
Step Time Temp KinEng PotEng TotEng Press 
       0            0    1.4725889    2.2082289   -4.2040943   -1.9958654    1.5512253 
      50          0.1    1.4921983    2.2376342   -4.2332403    -1.995606     1.498226 
     100          0.2    1.4762543    2.2137254   -4.2092578   -1.9955324    1.5929487 
     150          0.3    1.4807473    2.2204628   -4.2160541   -1.9955913    1.5186941 
     200          0.4    1.4848927     2.226679   -4.2219602   -1.9952812    1.4802999 
     250          0.5    1.4832455     2.224209   -4.2197891   -1.9955801    1.4875882 
     300          0.6    1.4857383    2.2279472   -4.2234333   -1.9954861    1.5267821 
     350          0.7    1.4666088    2.1992614   -4.1947549   -1.9954935    1.6357564 
     400          0.8    1.4871366     2.230044   -4.2250106   -1.9949666    1.5293476 
     450          0.9    1.4781477    2.2165647   -4.2121163   -1.9955517    1.5637605 
     500            1    1.4718955    2.2071891   -4.2029157   -1.9957266    1.6445505 
     550          1.1    1.4784521    2.2170211   -4.2127054   -1.9956843     1.606421 
     600          1.2    1.4925149    2.2381091   -4.2341287   -1.9960197    1.5531407 
     650          1.3    1.4778971    2.2161888   -4.2124073   -1.9962185    1.6699309 
     700          1.4    1.4838389    2.2250988   -4.2208682   -1.9957694    1.6793173 
     750          1.5    1.4630429    2.1939141   -4.1895745   -1.9956603    1.7212111 
     800          1.6    1.4839824    2.2253141   -4.2210691    -1.995755    1.5723964 
     850          1.7    1.5001536    2.2495637    -4.244977   -1.9954134    1.4928062 
     900          1.8    1.4788515      2.21762   -4.2131757   -1.9955557    1.6287814 
     950          1.9    1.4873453     2.230357   -4.2264099   -1.9960529    1.6182469 
    1000            2    1.4913063    2.2362967   -4.2322247   -1.9959281    1.5898148 
    1050          2.1    1.4956898      2.24287   -4.2382438   -1.9953738    1.5711582 
    1100          2.2     1.487361    2.2303805   -4.2262599   -1.9958794    1.5958828 
    1150          2.3    1.4864536    2.2290198   -4.2248793   -1.9958595    1.5541289 
    1200          2.4    1.4739856    2.2103233   -4.2059359   -1.9956126    1.5763554 
    1250          2.5     1.471763    2.2069904   -4.2023664    -1.995376    1.5725312 
    1300          2.6    1.4796907    2.2188784   -4.2146625   -1.9957841    1.5478201 
    1350          2.7    1.4762671    2.2137446   -4.2091939   -1.9954493     1.581193 
    1400          2.8    1.4871206    2.2300199    -4.225835   -1.9958151    1.4933777 
    1450          2.9    1.4818504     2.222117   -4.2181301   -1.9960131    1.5513101 
    1500            3    1.4620807    2.1924712   -4.1887465   -1.9962753    1.6522418 
    1550          3.1    1.4722992    2.2077944   -4.2040804   -1.9962859    1.6097964 
    1600          3.2    1.4864622    2.2290326   -4.2250471   -1.9960145    1.5154746 
    1650          3.3    1.4954131     2.242455   -4.2381644   -1.9957094    1.4687302 
    1700          3.4    1.4634429    2.1945139    -4.190423   -1.9959091    1.6477431 
    1750          3.5        1.465    2.1968489   -4.1922122   -1.9953633    1.7002334 
    1800          3.6    1.5028361    2.2535862   -4.2491026   -1.9955164    1.5065599 
    1850          3.7     1.471791    2.2070324   -4.2024802   -1.9954479     1.693944 
    1900          3.8    1.4902787    2.2347557   -4.2303202   -1.9955645     1.549099 
    1950          3.9    1.4883856     2.231917   -4.2280473   -1.9961303    1.5600762 
    2000            4    1.5011447    2.2510499   -4.2469743   -1.9959244    1.4741777 
    2050          4.1    1.4895476    2.2336593   -4.2292933    -1.995634    1.5003194 
    2100          4.2    1.4795419    2.2186553   -4.2143347   -1.9956794    1.5687876 
    2150          4.3    1.4715826    2.2067198   -4.2022614   -1.9955416    1.6431179 
    2200          4.4    1.4762337    2.2136944   -4.2095767   -1.9958823     1.582704 
    2250          4.5    1.4926638    2.2383322    -4.233654   -1.9953218    1.5000267 
    2300          4.6    1.4814597    2.2215312   -4.2167527   -1.9952215    1.5767526 
    2350          4.7    1.5011406    2.2510437   -4.2463911   -1.9953474     1.427323 
    2400          4.8     1.476785    2.2145212    -4.210059   -1.9955379    1.5586743 
    2450          4.9    1.4869373     2.229745   -4.2251874   -1.9954424    1.5048009 
    2500            5    1.5060964    2.2584753   -4.2546699   -1.9961947    1.4251701 
Loop time of 9.19258 on 1 procs for 2500 steps with 3375 atoms

Performance: 46994.444 tau/day, 271.959 timesteps/s
99.7% CPU use with 1 MPI tasks x no OpenMP threads

MPI task timing breakdown:
Section |  min time  |  avg time  |  max time  |%varavg| %total
---------------------------------------------------------------
Pair    | 8.1316     | 8.1316     | 8.1316     |   0.0 | 88.46
Neigh   | 0.7643     | 0.7643     | 0.7643     |   0.0 |  8.31
Comm    | 0.10483    | 0.10483    | 0.10483    |   0.0 |  1.14
Output  | 0.00079873 | 0.00079873 | 0.00079873 |   0.0 |  0.01
Modify  | 0.16542    | 0.16542    | 0.16542    |   0.0 |  1.80
Other   |            | 0.02566    |            |       |  0.28

Nlocal:        3375.00 ave        3375 max        3375 min
Histogram: 1 0 0 0 0 0 0 0 0 0
Nghost:        5600.00 ave        5600 max        5600 min
Histogram: 1 0 0 0 0 0 0 0 0 0
Neighs:        169014.0 ave      169014 max      169014 min
Histogram: 1 0 0 0 0 0 0 0 0 0

Total # of neighbors = 169014
Ave neighs/atom = 50.078222
Neighbor list builds = 125
Dangerous builds not checked
variable        diff_accum equal ${diff_accum}+${diff_integ}/(3*${loop_iterations})
variable        diff_accum equal 0.0155139838036162+${diff_integ}/(3*${loop_iterations})
variable        diff_accum equal 0.0155139838036162+0.481379853564786/(3*${loop_iterations})
variable        diff_accum equal 0.0155139838036162+0.481379853564786/(3*25)
unfix           fixVACF
write_data      liquid.T${temp}.rho${rho}.data
write_data      liquid.T1.5.rho${rho}.data
write_data      liquid.T1.5.rho0.67.data
System init for write_data ...
print           "" append log.vacf.T${temp}.rho${rho}.txt screen no
print           "" append log.vacf.T1.5.rho${rho}.txt screen no
print           "" append log.vacf.T1.5.rho0.67.txt screen no

next            loop_counter
jump            SELF loop
clear

pair_style	lj/smooth 2.5 3.0

read_data       liquid.T${temp}.rho${rho}.data
read_data       liquid.T1.5.rho${rho}.data
read_data       liquid.T1.5.rho0.67.data
Reading data file ...
  orthogonal box = (0.0000000 0.0000000 0.0000000) to (17.142191 17.142191 17.142191)
  1 by 1 by 1 MPI processor grid
  reading atoms ...
  3375 atoms
  reading velocities ...
  3375 velocities
  read_data CPU = 0.009 seconds

neighbor	0.3 bin
neigh_modify	every 20 delay 0 check no

fix		1 all nve
timestep        0.002
thermo		50

reset_timestep  0
compute         myVACF all vacf

fix             fixVACF all vector 1 c_myVACF[4]
variable        diff_integ equal dt*trap(f_fixVACF)
variable        curVACF equal c_myVACF[4]

variable        step0 equal step
variable        step0 equal $(v_step0)
variable        step0 equal 0
variable        dtime equal (step-${step0})*dt
variable        dtime equal (step-0)*dt
fix             print_vacf all print 2 "${dtime} ${curVACF} ${diff_integ}" append log.vacf.T${temp}.rho${rho}.txt screen no
fix             print_vacf all print 2 "${dtime} ${curVACF} ${diff_integ}" append log.vacf.T1.5.rho${rho}.txt screen no
fix             print_vacf all print 2 "${dtime} ${curVACF} ${diff_integ}" append log.vacf.T1.5.rho0.67.txt screen no
thermo_style	custom step time temp ke pe etotal press

run             ${loop_length}
run             2500
Neighbor list info ...
  update every 20 steps, delay 0 steps, check no
  max neighbors/atom: 2000, page size: 100000
  master list distance cutoff = 3.3
  ghost atom cutoff = 3.3
  binsize = 1.65, bins = 11 11 11
  1 neighbor lists, perpetual/occasional/extra = 1 0 0
  (1) pair lj/smooth, perpetual
      attributes: half, newton on
      pair build: half/bin/atomonly/newton
      stencil: half/bin/3d
      bin: standard
Per MPI rank memory allocation (min/avg/max) = 3.557 | 3.557 | 3.557 Mbytes
Step Time Temp KinEng PotEng TotEng Press 
       0            0    1.5060964    2.2584753   -4.2546699   -1.9961947    1.4251701 
      50          0.1    1.4895149    2.2336103   -4.2290682   -1.9954579    1.5347182 
     100          0.2    1.4733956    2.2094386   -4.2048542   -1.9954155     1.597909 
     150          0.3    1.4686933    2.2023872   -4.1981554   -1.9957681    1.6495321 
     200          0.4    1.4775865     2.215723   -4.2109463   -1.9952233    1.6082064 
     250          0.5    1.4849608    2.2267812   -4.2217951   -1.9950139    1.5276083 
     300          0.6     1.526297    2.2887671   -4.2841796   -1.9954125    1.3234796 
     350          0.7    1.4883168    2.2318137   -4.2272952   -1.9954815    1.5231878 
     400          0.8    1.4805167    2.2201171   -4.2156733   -1.9955563    1.5591878 
     450          0.9     1.477823    2.2160776   -4.2118966    -1.995819     1.587794 
     500            1    1.4803415    2.2198543   -4.2158067   -1.9959525    1.6051124 
     550          1.1    1.4814472    2.2215124   -4.2170829   -1.9955706    1.5691635 
     600          1.2    1.4947496    2.2414601   -4.2372701     -1.99581    1.4847201 
     650          1.3    1.4856079    2.2277516   -4.2234067    -1.995655    1.5768168 
     700          1.4    1.4608641    2.1906469   -4.1866436   -1.9959967    1.7209624 
     750          1.5    1.4768847    2.2146707   -4.2104871   -1.9958164    1.6231863 
     800          1.6    1.4860127    2.2283586   -4.2242863   -1.9959277    1.5428424 
     850          1.7    1.4882919    2.2317763   -4.2272166   -1.9954402    1.5055446 
     900          1.8    1.4721239    2.2075316   -4.2028882   -1.9953566    1.5987378 
     950          1.9    1.4922969    2.2377821   -4.2331053   -1.9953232    1.5017532 
    1000            2    1.4835135    2.2246109   -4.2198144   -1.9952035    1.5121857 
    1050          2.1    1.4925192    2.2381154   -4.2338807   -1.9957653    1.4747849 
    1100          2.2    1.4807367     2.220447   -4.2157805   -1.9953335    1.5587987 
    1150          2.3    1.4940671    2.2404366   -4.2360627   -1.9956262    1.5132114 
    1200          2.4    1.4886578     2.232325   -4.2278584   -1.9955334    1.5555519 
    1250          2.5    1.5008381    2.2505901    -4.246101   -1.9955109    1.4759789 
    1300          2.6    1.4752636    2.2122398   -4.2075076   -1.9952678      1.58947 
    1350          2.7    1.4836627    2.2248346   -4.2208155   -1.9959808    1.5593339 
    1400          2.8    1.4768429     2.214608   -4.2103657   -1.9957577    1.6295396 
    1450          2.9    1.4919765    2.2373016    -4.232612   -1.9953104    1.5538528 
    1500            3    1.4661764     2.198613   -4.1939879   -1.9953749    1.6768579 
    1550          3.1    1.4721437    2.2075612   -4.2025614   -1.9950002    1.6572813 
    1600          3.2    1.4852414    2.2272019    -4.222148    -1.994946    1.5902327 
    1650          3.3    1.4954139    2.2424562   -4.2376577   -1.9952014    1.4982715 
    1700          3.4     1.480998    2.2208388   -4.2163646   -1.9955258    1.5653116 
    1750          3.5    1.4829175    2.2237172   -4.2194454   -1.9957281    1.5396377 
    1800          3.6    1.4682473    2.2017185   -4.1974011   -1.9956827    1.6269271 
    1850          3.7      1.47411    2.2105098    -4.206225   -1.9957151    1.5636263 
    1900          3.8    1.4881693    2.2315926   -4.2276515   -1.9960589    1.5523782 
    1950          3.9    1.4993355    2.2483368   -4.2443162   -1.9959793    1.5495214 
    2000            4    1.4714425    2.2065098   -4.2022154   -1.9957056    1.6406663 
    2050          4.1    1.4946737    2.2413462   -4.2371757   -1.9958295    1.4769013 
    2100          4.2    1.5018518    2.2521103   -4.2479556   -1.9958453    1.4696837 
    2150          4.3    1.4714388    2.2065043   -4.2026337   -1.9961294    1.6185682 
    2200          4.4     1.473183    2.2091197   -4.2050259   -1.9959062    1.6278896 
    2250          4.5    1.4671601    2.2000881   -4.1954197   -1.9953316    1.6702596 
    2300          4.6    1.4692357    2.2032006      -4.1988   -1.9955995    1.6569593 
    2350          4.7    1.4730069    2.2088557   -4.2048518   -1.9959961    1.5959775 
    2400          4.8    1.4819542    2.2222727   -4.2179455   -1.9956728    1.5496443 
    2450          4.9     1.479015    2.2178651   -4.2140506   -1.9961855    1.5521739 
    2500            5     1.487017    2.2298646    -4.225267   -1.9954023    1.5612353 
Loop time of 9.23799 on 1 procs for 2500 steps with 3375 atoms

Performance: 46763.433 tau/day, 270.622 timesteps/s
99.7% CPU use with 1 MPI tasks x no OpenMP threads

MPI task timing breakdown:
Section |  min time  |  avg time  |  max time  |%varavg| %total
---------------------------------------------------------------
Pair    | 8.1702     | 8.1702     | 8.1702     |   0.0 | 88.44
Neigh   | 0.77088    | 0.77088    | 0.77088    |   0.0 |  8.34
Comm    | 0.10567    | 0.10567    | 0.10567    |   0.0 |  1.14
Output  | 0.00080423 | 0.00080423 | 0.00080423 |   0.0 |  0.01
Modify  | 0.16496    | 0.16496    | 0.16496    |   0.0 |  1.79
Other   |            | 0.02544    |            |       |  0.28

Nlocal:        3375.00 ave        3375 max        3375 min
Histogram: 1 0 0 0 0 0 0 0 0 0
Nghost:        5576.00 ave        5576 max        5576 min
Histogram: 1 0 0 0 0 0 0 0 0 0
Neighs:        169240.0 ave      169240 max      169240 min
Histogram: 1 0 0 0 0 0 0 0 0 0

Total # of neighbors = 169240
Ave neighs/atom = 50.145185
Neighbor list builds = 125
Dangerous builds not checked
variable        diff_accum equal ${diff_accum}+${diff_integ}/(3*${loop_iterations})
variable        diff_accum equal 0.0219323818511467+${diff_integ}/(3*${loop_iterations})
variable        diff_accum equal 0.0219323818511467+0.47076998289272/(3*${loop_iterations})
variable        diff_accum equal 0.0219323818511467+0.47076998289272/(3*25)
unfix           fixVACF
write_data      liquid.T${temp}.rho${rho}.data
write_data      liquid.T1.5.rho${rho}.data
write_data      liquid.T1.5.rho0.67.data
System init for write_data ...
print           "" append log.vacf.T${temp}.rho${rho}.txt screen no
print           "" append log.vacf.T1.5.rho${rho}.txt screen no
print           "" append log.vacf.T1.5.rho0.67.txt screen no

next            loop_counter
jump            SELF loop
clear

pair_style	lj/smooth 2.5 3.0

read_data       liquid.T${temp}.rho${rho}.data
read_data       liquid.T1.5.rho${rho}.data
read_data       liquid.T1.5.rho0.67.data
Reading data file ...
  orthogonal box = (0.0000000 0.0000000 0.0000000) to (17.142191 17.142191 17.142191)
  1 by 1 by 1 MPI processor grid
  reading atoms ...
  3375 atoms
  reading velocities ...
  3375 velocities
  read_data CPU = 0.009 seconds

neighbor	0.3 bin
neigh_modify	every 20 delay 0 check no

fix		1 all nve
timestep        0.002
thermo		50

reset_timestep  0
compute         myVACF all vacf

fix             fixVACF all vector 1 c_myVACF[4]
variable        diff_integ equal dt*trap(f_fixVACF)
variable        curVACF equal c_myVACF[4]

variable        step0 equal step
variable        step0 equal $(v_step0)
variable        step0 equal 0
variable        dtime equal (step-${step0})*dt
variable        dtime equal (step-0)*dt
fix             print_vacf all print 2 "${dtime} ${curVACF} ${diff_integ}" append log.vacf.T${temp}.rho${rho}.txt screen no
fix             print_vacf all print 2 "${dtime} ${curVACF} ${diff_integ}" append log.vacf.T1.5.rho${rho}.txt screen no
fix             print_vacf all print 2 "${dtime} ${curVACF} ${diff_integ}" append log.vacf.T1.5.rho0.67.txt screen no
thermo_style	custom step time temp ke pe etotal press

run             ${loop_length}
run             2500
Neighbor list info ...
  update every 20 steps, delay 0 steps, check no
  max neighbors/atom: 2000, page size: 100000
  master list distance cutoff = 3.3
  ghost atom cutoff = 3.3
  binsize = 1.65, bins = 11 11 11
  1 neighbor lists, perpetual/occasional/extra = 1 0 0
  (1) pair lj/smooth, perpetual
      attributes: half, newton on
      pair build: half/bin/atomonly/newton
      stencil: half/bin/3d
      bin: standard
Per MPI rank memory allocation (min/avg/max) = 3.556 | 3.556 | 3.556 Mbytes
Step Time Temp KinEng PotEng TotEng Press 
       0            0     1.487017    2.2298646    -4.225267   -1.9954023    1.5612353 
      50          0.1    1.4966706    2.2443407   -4.2397598   -1.9954191    1.5149834 
     100          0.2    1.4811286    2.2210347   -4.2163628   -1.9953281    1.6002548 
     150          0.3    1.5063147    2.2588026   -4.2544631   -1.9956605    1.4296115 
     200          0.4    1.4769382     2.214751   -4.2100516   -1.9953007    1.5811011 
     250          0.5    1.4636389    2.1948078   -4.1904151   -1.9956074    1.6449816 
     300          0.6    1.4712809    2.2062675   -4.2022226   -1.9959551    1.6096492 
     350          0.7    1.4769462    2.2147629   -4.2102334   -1.9954705    1.5944596 
     400          0.8    1.4843976    2.2259366   -4.2215138   -1.9955772    1.5853095 
     450          0.9    1.4837977    2.2250371   -4.2206073   -1.9955702    1.5663773 
     500            1    1.4769918    2.2148313   -4.2105264   -1.9956951    1.5764589 
     550          1.1    1.4876145    2.2307606   -4.2262869   -1.9955263    1.4969261 
     600          1.2    1.4767812    2.2145154   -4.2100883   -1.9955729     1.578089 
     650          1.3    1.4835883    2.2247231   -4.2203829   -1.9956598    1.5585394 
     700          1.4    1.4874299    2.2304837   -4.2257672   -1.9952835    1.5519503 
     750          1.5    1.4750713    2.2119514   -4.2078351   -1.9958837    1.5907873 
     800          1.6    1.4713816    2.2064185   -4.2019463   -1.9955278    1.6102276 
     850          1.7    1.4847982    2.2265373   -4.2221802   -1.9956428    1.5384212 
     900          1.8    1.4781919    2.2166308   -4.2126277   -1.9959969    1.5772974 
     950          1.9    1.4778444    2.2161098   -4.2116681   -1.9955583    1.5603728 
    1000            2    1.4633631    2.1943943   -4.1896824   -1.9952881    1.6176206 
    1050          2.1    1.4725516    2.2081729   -4.2037115   -1.9955386    1.5829596 
    1100          2.2     1.471385    2.2064235   -4.2023289   -1.9959054    1.5916311 
    1150          2.3    1.4847383    2.2264475   -4.2225243   -1.9960768    1.5387031 
    1200          2.4     1.490736    2.2354414   -4.2312969   -1.9958555    1.5284904 
    1250          2.5    1.4976075    2.2457457   -4.2414487    -1.995703    1.5141135 
    1300          2.6    1.4639481    2.1952715   -4.1905252   -1.9952537    1.6990779 
    1350          2.7    1.4999906    2.2493192   -4.2451199   -1.9958007    1.5087971 
    1400          2.8    1.4782733     2.216753   -4.2124594   -1.9957065    1.6378385 
    1450          2.9    1.4839737     2.225301   -4.2210855   -1.9957845    1.6085571 
    1500            3    1.4763621     2.213887    -4.209557     -1.99567    1.5995611 
    1550          3.1    1.4820354    2.2223945   -4.2178383   -1.9954438    1.5541714 
    1600          3.2    1.4828812    2.2236627   -4.2194502   -1.9957875    1.6044164 
    1650          3.3     1.487038    2.2298961   -4.2257695   -1.9958733    1.6079617 
    1700          3.4    1.4873623    2.2303824   -4.2263841   -1.9960016    1.5969136 
    1750          3.5     1.471414    2.2064671   -4.2025568   -1.9960897     1.643735 
    1800          3.6    1.4826071    2.2232518   -4.2190168    -1.995765    1.5770947 
    1850          3.7     1.474405    2.2109523   -4.2064363   -1.9954841    1.6053304 
    1900          3.8    1.4980056    2.2463426   -4.2417067   -1.9953641    1.4870711 
    1950          3.9    1.4771228    2.2150276   -4.2110205   -1.9959929    1.6405318 
    2000            4    1.4682865    2.2017772   -4.1977577   -1.9959805    1.6520415 
    2050          4.1    1.4911857    2.2361158   -4.2317392   -1.9956235    1.5296086 
    2100          4.2    1.4806039    2.2202478    -4.216093   -1.9958452    1.6304916 
    2150          4.3    1.4877681    2.2309909   -4.2268296   -1.9958386    1.5987295 
    2200          4.4    1.4694095    2.2034612   -4.1988928   -1.9954316    1.6609714 
    2250          4.5    1.4875326    2.2306377   -4.2260242   -1.9953865    1.5521994 
    2300          4.6    1.4912815    2.2362594   -4.2317166   -1.9954571    1.5271935 
    2350          4.7    1.4859568    2.2282747    -4.223715   -1.9954402    1.5662728 
    2400          4.8    1.4819291    2.2222351   -4.2182099   -1.9959748    1.5940411 
    2450          4.9    1.4792756     2.218256   -4.2142616   -1.9960056    1.6245642 
    2500            5    1.4690244    2.2028837   -4.1987578   -1.9958742    1.6558198 
Loop time of 9.18672 on 1 procs for 2500 steps with 3375 atoms

Performance: 47024.396 tau/day, 272.132 timesteps/s
99.8% CPU use with 1 MPI tasks x no OpenMP threads

MPI task timing breakdown:
Section |  min time  |  avg time  |  max time  |%varavg| %total
---------------------------------------------------------------
Pair    | 8.1206     | 8.1206     | 8.1206     |   0.0 | 88.40
Neigh   | 0.77203    | 0.77203    | 0.77203    |   0.0 |  8.40
Comm    | 0.10527    | 0.10527    | 0.10527    |   0.0 |  1.15
Output  | 0.00080102 | 0.00080102 | 0.00080102 |   0.0 |  0.01
Modify  | 0.16241    | 0.16241    | 0.16241    |   0.0 |  1.77
Other   |            | 0.02559    |            |       |  0.28

Nlocal:        3375.00 ave        3375 max        3375 min
Histogram: 1 0 0 0 0 0 0 0 0 0
Nghost:        5535.00 ave        5535 max        5535 min
Histogram: 1 0 0 0 0 0 0 0 0 0
Neighs:        169111.0 ave      169111 max      169111 min
Histogram: 1 0 0 0 0 0 0 0 0 0

Total # of neighbors = 169111
Ave neighs/atom = 50.106963
Neighbor list builds = 125
Dangerous builds not checked
variable        diff_accum equal ${diff_accum}+${diff_integ}/(3*${loop_iterations})
variable        diff_accum equal 0.028209314956383+${diff_integ}/(3*${loop_iterations})
variable        diff_accum equal 0.028209314956383+0.561111291257125/(3*${loop_iterations})
variable        diff_accum equal 0.028209314956383+0.561111291257125/(3*25)
unfix           fixVACF
write_data      liquid.T${temp}.rho${rho}.data
write_data      liquid.T1.5.rho${rho}.data
write_data      liquid.T1.5.rho0.67.data
System init for write_data ...
print           "" append log.vacf.T${temp}.rho${rho}.txt screen no
print           "" append log.vacf.T1.5.rho${rho}.txt screen no
print           "" append log.vacf.T1.5.rho0.67.txt screen no

next            loop_counter
jump            SELF loop
clear

pair_style	lj/smooth 2.5 3.0

read_data       liquid.T${temp}.rho${rho}.data
read_data       liquid.T1.5.rho${rho}.data
read_data       liquid.T1.5.rho0.67.data
Reading data file ...
  orthogonal box = (0.0000000 0.0000000 0.0000000) to (17.142191 17.142191 17.142191)
  1 by 1 by 1 MPI processor grid
  reading atoms ...
  3375 atoms
  reading velocities ...
  3375 velocities
  read_data CPU = 0.009 seconds

neighbor	0.3 bin
neigh_modify	every 20 delay 0 check no

fix		1 all nve
timestep        0.002
thermo		50

reset_timestep  0
compute         myVACF all vacf

fix             fixVACF all vector 1 c_myVACF[4]
variable        diff_integ equal dt*trap(f_fixVACF)
variable        curVACF equal c_myVACF[4]

variable        step0 equal step
variable        step0 equal $(v_step0)
variable        step0 equal 0
variable        dtime equal (step-${step0})*dt
variable        dtime equal (step-0)*dt
fix             print_vacf all print 2 "${dtime} ${curVACF} ${diff_integ}" append log.vacf.T${temp}.rho${rho}.txt screen no
fix             print_vacf all print 2 "${dtime} ${curVACF} ${diff_integ}" append log.vacf.T1.5.rho${rho}.txt screen no
fix             print_vacf all print 2 "${dtime} ${curVACF} ${diff_integ}" append log.vacf.T1.5.rho0.67.txt screen no
thermo_style	custom step time temp ke pe etotal press

run             ${loop_length}
run             2500
Neighbor list info ...
  update every 20 steps, delay 0 steps, check no
  max neighbors/atom: 2000, page size: 100000
  master list distance cutoff = 3.3
  ghost atom cutoff = 3.3
  binsize = 1.65, bins = 11 11 11
  1 neighbor lists, perpetual/occasional/extra = 1 0 0
  (1) pair lj/smooth, perpetual
      attributes: half, newton on
      pair build: half/bin/atomonly/newton
      stencil: half/bin/3d
      bin: standard
Per MPI rank memory allocation (min/avg/max) = 3.554 | 3.554 | 3.554 Mbytes
Step Time Temp KinEng PotEng TotEng Press 
       0            0    1.4690244    2.2028837   -4.1987578   -1.9958742    1.6558198 
      50          0.1    1.4770128    2.2148628   -4.2106768    -1.995814    1.5815474 
     100          0.2    1.4935346    2.2396381   -4.2350299   -1.9953917    1.4960547 
     150          0.3    1.4910108    2.2358535   -4.2311372   -1.9952837    1.5159849 
     200          0.4    1.4612785    2.1912682   -4.1863731   -1.9951048    1.6852978 
     250          0.5    1.4835836     2.224716   -4.2200926   -1.9953766    1.5348412 
     300          0.6    1.4625269    2.1931404   -4.1890261   -1.9958857    1.6496748 
     350          0.7     1.486438    2.2289964   -4.2246607   -1.9956643    1.5615566 
     400          0.8    1.4902139    2.2346585   -4.2308384   -1.9961799    1.5764991 
     450          0.9    1.4973455    2.2453527   -4.2414314   -1.9960786    1.5431196 
     500            1    1.4843187    2.2258183   -4.2215459   -1.9957276    1.6006189 
     550          1.1     1.465883     2.198173   -4.1943351   -1.9961621    1.6645343 
     600          1.2    1.4850797    2.2269596   -4.2226379   -1.9956784    1.5641319 
     650          1.3    1.4732431    2.2092099   -4.2051858   -1.9959759    1.6178424 
     700          1.4     1.476715    2.2144162   -4.2107888   -1.9963726    1.6061169 
     750          1.5    1.4737103    2.2099104   -4.2056285   -1.9957181    1.6243859 
     800          1.6    1.4840025    2.2253442   -4.2208537   -1.9955095    1.5694276 
     850          1.7     1.493455    2.2395188   -4.2350536   -1.9955348    1.5040608 
     900          1.8    1.4744945    2.2110864   -4.2068947   -1.9958083    1.6240137 
     950          1.9    1.4740173    2.2103709   -4.2060402   -1.9956693    1.6852738 
    1000            2    1.4795333    2.2186423   -4.2141472   -1.9955049    1.6447134 
    1050          2.1    1.4949855    2.2418138   -4.2374522   -1.9956384    1.5263176 
    1100          2.2    1.4942083    2.2406483   -4.2360084   -1.9953601    1.4926461 
    1150          2.3    1.4781089    2.2165064   -4.2120631   -1.9955567    1.5930988 
    1200          2.4    1.4666374    2.1993042    -4.194771   -1.9954668     1.635619 
    1250          2.5    1.4956977    2.2428818   -4.2383506   -1.9954687    1.4852148 
    1300          2.6    1.5057307    2.2579269   -4.2537495   -1.9958226    1.4381945 
    1350          2.7    1.4918656    2.2371354   -4.2326242   -1.9954888      1.55774 
    1400          2.8    1.4677291    2.2009413   -4.1967774   -1.9958361    1.6861933 
    1450          2.9    1.4793598    2.2183822   -4.2145607   -1.9961785    1.5906251 
    1500            3     1.490322    2.2348207   -4.2308825   -1.9960617    1.5219102 
    1550          3.1    1.4929479    2.2387583   -4.2339493    -1.995191    1.5026005 
    1600          3.2    1.5016113    2.2517495   -4.2473807   -1.9956312    1.4941794 
    1650          3.3    1.4912319     2.236185   -4.2318155   -1.9956305    1.5568213 
    1700          3.4    1.4929829    2.2388108   -4.2339362   -1.9951254    1.5344929 
    1750          3.5     1.495776    2.2429993   -4.2379593     -1.99496    1.4943075 
    1800          3.6    1.4773966    2.2154383   -4.2105913    -1.995153    1.5829481 
    1850          3.7    1.4772748    2.2152556   -4.2107205   -1.9954648    1.5938176 
    1900          3.8    1.4612953    2.1912936   -4.1869724   -1.9956789    1.6713459 
    1950          3.9     1.490815    2.2355599   -4.2308268   -1.9952669    1.5217657 
    2000            4    1.4702023      2.20465    -4.200379    -1.995729    1.6279561 
    2050          4.1    1.4603189    2.1898294   -4.1854389   -1.9956096    1.6783445 
    2100          4.2    1.4722283    2.2076882   -4.2030931   -1.9954049    1.6136525 
    2150          4.3    1.4895118    2.2336057   -4.2293216   -1.9957159     1.516584 
    2200          4.4    1.4657141    2.1979197   -4.1942806   -1.9963609    1.6560616 
    2250          4.5    1.4720759    2.2074596   -4.2035588   -1.9960992    1.5893642 
    2300          4.6    1.4791546    2.2180744   -4.2132688   -1.9951943    1.5433082 
    2350          4.7    1.4873237    2.2303245   -4.2256645     -1.99534    1.4975479 
    2400          4.8    1.4973839    2.2454104   -4.2412597   -1.9958493    1.4538401 
    2450          4.9    1.4919014     2.237189   -4.2328668   -1.9956778    1.5001721 
    2500            5    1.4807155    2.2204152   -4.2163174   -1.9959022    1.5435926 
Loop time of 9.1882 on 1 procs for 2500 steps with 3375 atoms

Performance: 47016.836 tau/day, 272.088 timesteps/s
99.8% CPU use with 1 MPI tasks x no OpenMP threads

MPI task timing breakdown:
Section |  min time  |  avg time  |  max time  |%varavg| %total
---------------------------------------------------------------
Pair    | 8.1317     | 8.1317     | 8.1317     |   0.0 | 88.50
Neigh   | 0.76296    | 0.76296    | 0.76296    |   0.0 |  8.30
Comm    | 0.1043     | 0.1043     | 0.1043     |   0.0 |  1.14
Output  | 0.00079639 | 0.00079639 | 0.00079639 |   0.0 |  0.01
Modify  | 0.16259    | 0.16259    | 0.16259    |   0.0 |  1.77
Other   |            | 0.02582    |            |       |  0.28

Nlocal:        3375.00 ave        3375 max        3375 min
Histogram: 1 0 0 0 0 0 0 0 0 0
Nghost:        5549.00 ave        5549 max        5549 min
Histogram: 1 0 0 0 0 0 0 0 0 0
Neighs:        169279.0 ave      169279 max      169279 min
Histogram: 1 0 0 0 0 0 0 0 0 0

Total # of neighbors = 169279
Ave neighs/atom = 50.156741
Neighbor list builds = 125
Dangerous builds not checked
variable        diff_accum equal ${diff_accum}+${diff_integ}/(3*${loop_iterations})
variable        diff_accum equal 0.0356907988398113+${diff_integ}/(3*${loop_iterations})
variable        diff_accum equal 0.0356907988398113+0.571661996213819/(3*${loop_iterations})
variable        diff_accum equal 0.0356907988398113+0.571661996213819/(3*25)
unfix           fixVACF
write_data      liquid.T${temp}.rho${rho}.data
write_data      liquid.T1.5.rho${rho}.data
write_data      liquid.T1.5.rho0.67.data
System init for write_data ...
print           "" append log.vacf.T${temp}.rho${rho}.txt screen no
print           "" append log.vacf.T1.5.rho${rho}.txt screen no
print           "" append log.vacf.T1.5.rho0.67.txt screen no

next            loop_counter
jump            SELF loop
clear

pair_style	lj/smooth 2.5 3.0

read_data       liquid.T${temp}.rho${rho}.data
read_data       liquid.T1.5.rho${rho}.data
read_data       liquid.T1.5.rho0.67.data
Reading data file ...
  orthogonal box = (0.0000000 0.0000000 0.0000000) to (17.142191 17.142191 17.142191)
  1 by 1 by 1 MPI processor grid
  reading atoms ...
  3375 atoms
  reading velocities ...
  3375 velocities
  read_data CPU = 0.009 seconds

neighbor	0.3 bin
neigh_modify	every 20 delay 0 check no

fix		1 all nve
timestep        0.002
thermo		50

reset_timestep  0
compute         myVACF all vacf

fix             fixVACF all vector 1 c_myVACF[4]
variable        diff_integ equal dt*trap(f_fixVACF)
variable        curVACF equal c_myVACF[4]

variable        step0 equal step
variable        step0 equal $(v_step0)
variable        step0 equal 0
variable        dtime equal (step-${step0})*dt
variable        dtime equal (step-0)*dt
fix             print_vacf all print 2 "${dtime} ${curVACF} ${diff_integ}" append log.vacf.T${temp}.rho${rho}.txt screen no
fix             print_vacf all print 2 "${dtime} ${curVACF} ${diff_integ}" append log.vacf.T1.5.rho${rho}.txt screen no
fix             print_vacf all print 2 "${dtime} ${curVACF} ${diff_integ}" append log.vacf.T1.5.rho0.67.txt screen no
thermo_style	custom step time temp ke pe etotal press

run             ${loop_length}
run             2500
Neighbor list info ...
  update every 20 steps, delay 0 steps, check no
  max neighbors/atom: 2000, page size: 100000
  master list distance cutoff = 3.3
  ghost atom cutoff = 3.3
  binsize = 1.65, bins = 11 11 11
  1 neighbor lists, perpetual/occasional/extra = 1 0 0
  (1) pair lj/smooth, perpetual
      attributes: half, newton on
      pair build: half/bin/atomonly/newton
      stencil: half/bin/3d
      bin: standard
Per MPI rank memory allocation (min/avg/max) = 3.557 | 3.557 | 3.557 Mbytes
Step Time Temp KinEng PotEng TotEng Press 
       0            0    1.4807155    2.2204152   -4.2163174   -1.9959022    1.5435926 
      50          0.1    1.4845973    2.2262361   -4.2217342   -1.9954981    1.5210264 
     100          0.2    1.5042647    2.2557284   -4.2510428   -1.9953144    1.4419669 
     150          0.3    1.4931551     2.239069   -4.2350942   -1.9960252    1.5471677 
     200          0.4    1.4870817    2.2299616   -4.2256376    -1.995676    1.5285567 
     250          0.5    1.4888339    2.2325892   -4.2280007   -1.9954115    1.5245981 
     300          0.6    1.4753447    2.2123614   -4.2078825   -1.9955211    1.6001829 
     350          0.7    1.4857228    2.2279239   -4.2234246   -1.9955007    1.5153354 
     400          0.8    1.5012954    2.2512758   -4.2470688    -1.995793    1.4408928 
     450          0.9    1.4652116    2.1971662   -4.1933462     -1.99618    1.6335123 
     500            1    1.4936429    2.2398006   -4.2359603   -1.9961597    1.5167114 
     550          1.1    1.4734645    2.2095419   -4.2055925   -1.9960506    1.5937654 
     600          1.2    1.4815102    2.2216069   -4.2173692   -1.9957624    1.5812754 
     650          1.3    1.4795623    2.2186859   -4.2146983   -1.9960124    1.5856724 
     700          1.4    1.4885418    2.2321511   -4.2281852   -1.9960342    1.5479352 
     750          1.5    1.4761772    2.2136098    -4.209391   -1.9957812    1.6196737 
     800          1.6    1.4749143    2.2117159   -4.2074379    -1.995722    1.5995224 
     850          1.7    1.4823754    2.2229042    -4.218353   -1.9954488    1.5438695 
     900          1.8    1.4825403    2.2231516   -4.2191144   -1.9959628    1.5859402 
     950          1.9    1.4877461    2.2309579   -4.2265296   -1.9955717    1.5249604 
    1000            2     1.484802    2.2265431   -4.2218629   -1.9953199    1.5635733 
    1050          2.1    1.4861614    2.2285816   -4.2241151   -1.9955335    1.5688067 
    1100          2.2    1.4921118    2.2375045   -4.2330623   -1.9955578    1.5151101 
    1150          2.3    1.4856923    2.2278781   -4.2232308   -1.9953527    1.5494137 
    1200          2.4    1.4696222    2.2037801    -4.199256   -1.9954759    1.6156356 
    1250          2.5    1.4843069    2.2258007   -4.2216257    -1.995825     1.529947 
    1300          2.6    1.4792909    2.2182789   -4.2140225   -1.9957436    1.5550125 
    1350          2.7    1.4763393    2.2138528   -4.2097405   -1.9958877    1.5578143 
    1400          2.8    1.4841983    2.2256378   -4.2212117   -1.9955739    1.5523417 
    1450          2.9    1.4656169     2.197774   -4.1931094   -1.9953354    1.6617109 
    1500            3    1.4742329    2.2106941   -4.2061997   -1.9955055    1.5779151 
    1550          3.1    1.5016841    2.2518587   -4.2470728   -1.9952141    1.4428804 
    1600          3.2    1.4833534    2.2243709   -4.2193404   -1.9949695    1.4810365 
    1650          3.3    1.4810601    2.2209319   -4.2159929    -1.995061    1.4633007 
    1700          3.4    1.4795281    2.2186347   -4.2137557   -1.9951211    1.4977658 
    1750          3.5    1.4899205    2.2342186   -4.2296686     -1.99545    1.4602588 
    1800          3.6    1.4718904    2.2071814   -4.2024667   -1.9952853    1.5707953 
    1850          3.7    1.4785088    2.2171061    -4.212733   -1.9956269    1.5856393 
    1900          3.8     1.476082    2.2134669   -4.2092187   -1.9957517    1.6028776 
    1950          3.9    1.4855413    2.2276517   -4.2234811   -1.9958294    1.5443485 
    2000            4    1.4935935    2.2397264   -4.2352466   -1.9955201    1.5289831 
    2050          4.1    1.4774193    2.2154723   -4.2110849   -1.9956126    1.6438387 
    2100          4.2    1.4843461    2.2258594   -4.2212087   -1.9953492    1.5833963 
    2150          4.3    1.4963454    2.2438531   -4.2398553   -1.9960022    1.4951452 
    2200          4.4    1.4753711    2.2124009   -4.2085849    -1.996184    1.5798455 
    2250          4.5     1.487311    2.2303055   -4.2262185   -1.9959131    1.5312765 
    2300          4.6     1.485537    2.2276452   -4.2234799   -1.9958346    1.5745488 
    2350          4.7    1.4669854    2.1998261   -4.1955828   -1.9957567    1.6519365 
    2400          4.8    1.4849587    2.2267781   -4.2227904   -1.9960123    1.5665291 
    2450          4.9    1.4779154    2.2162163   -4.2119845   -1.9957682    1.6123899 
    2500            5    1.4765282    2.2141361   -4.2099573   -1.9958212    1.5838909 
Loop time of 9.19821 on 1 procs for 2500 steps with 3375 atoms

Performance: 46965.654 tau/day, 271.792 timesteps/s
99.7% CPU use with 1 MPI tasks x no OpenMP threads

MPI task timing breakdown:
Section |  min time  |  avg time  |  max time  |%varavg| %total
---------------------------------------------------------------
Pair    | 8.127      | 8.127      | 8.127      |   0.0 | 88.35
Neigh   | 0.77138    | 0.77138    | 0.77138    |   0.0 |  8.39
Comm    | 0.10588    | 0.10588    | 0.10588    |   0.0 |  1.15
Output  | 0.0008088  | 0.0008088  | 0.0008088  |   0.0 |  0.01
Modify  | 0.16746    | 0.16746    | 0.16746    |   0.0 |  1.82
Other   |            | 0.02571    |            |       |  0.28

Nlocal:        3375.00 ave        3375 max        3375 min
Histogram: 1 0 0 0 0 0 0 0 0 0
Nghost:        5671.00 ave        5671 max        5671 min
Histogram: 1 0 0 0 0 0 0 0 0 0
Neighs:        169077.0 ave      169077 max      169077 min
Histogram: 1 0 0 0 0 0 0 0 0 0

Total # of neighbors = 169077
Ave neighs/atom = 50.096889
Neighbor list builds = 125
Dangerous builds not checked
variable        diff_accum equal ${diff_accum}+${diff_integ}/(3*${loop_iterations})
variable        diff_accum equal 0.0433129587893289+${diff_integ}/(3*${loop_iterations})
variable        diff_accum equal 0.0433129587893289+0.579133490066929/(3*${loop_iterations})
variable        diff_accum equal 0.0433129587893289+0.579133490066929/(3*25)
unfix           fixVACF
write_data      liquid.T${temp}.rho${rho}.data
write_data      liquid.T1.5.rho${rho}.data
write_data      liquid.T1.5.rho0.67.data
System init for write_data ...
print           "" append log.vacf.T${temp}.rho${rho}.txt screen no
print           "" append log.vacf.T1.5.rho${rho}.txt screen no
print           "" append log.vacf.T1.5.rho0.67.txt screen no

next            loop_counter
jump            SELF loop
clear

pair_style	lj/smooth 2.5 3.0

read_data       liquid.T${temp}.rho${rho}.data
read_data       liquid.T1.5.rho${rho}.data
read_data       liquid.T1.5.rho0.67.data
Reading data file ...
  orthogonal box = (0.0000000 0.0000000 0.0000000) to (17.142191 17.142191 17.142191)
  1 by 1 by 1 MPI processor grid
  reading atoms ...
  3375 atoms
  reading velocities ...
  3375 velocities
  read_data CPU = 0.009 seconds

neighbor	0.3 bin
neigh_modify	every 20 delay 0 check no

fix		1 all nve
timestep        0.002
thermo		50

reset_timestep  0
compute         myVACF all vacf

fix             fixVACF all vector 1 c_myVACF[4]
variable        diff_integ equal dt*trap(f_fixVACF)
variable        curVACF equal c_myVACF[4]

variable        step0 equal step
variable        step0 equal $(v_step0)
variable        step0 equal 0
variable        dtime equal (step-${step0})*dt
variable        dtime equal (step-0)*dt
fix             print_vacf all print 2 "${dtime} ${curVACF} ${diff_integ}" append log.vacf.T${temp}.rho${rho}.txt screen no
fix             print_vacf all print 2 "${dtime} ${curVACF} ${diff_integ}" append log.vacf.T1.5.rho${rho}.txt screen no
fix             print_vacf all print 2 "${dtime} ${curVACF} ${diff_integ}" append log.vacf.T1.5.rho0.67.txt screen no
thermo_style	custom step time temp ke pe etotal press

run             ${loop_length}
run             2500
Neighbor list info ...
  update every 20 steps, delay 0 steps, check no
  max neighbors/atom: 2000, page size: 100000
  master list distance cutoff = 3.3
  ghost atom cutoff = 3.3
  binsize = 1.65, bins = 11 11 11
  1 neighbor lists, perpetual/occasional/extra = 1 0 0
  (1) pair lj/smooth, perpetual
      attributes: half, newton on
      pair build: half/bin/atomonly/newton
      stencil: half/bin/3d
      bin: standard
Per MPI rank memory allocation (min/avg/max) = 3.561 | 3.561 | 3.561 Mbytes
Step Time Temp KinEng PotEng TotEng Press 
       0            0    1.4765282    2.2141361   -4.2099573   -1.9958212    1.5838909 
      50          0.1    1.4646827    2.1963731    -4.192272   -1.9958989    1.6450679 
     100          0.2    1.4723934    2.2079357   -4.2035401   -1.9956044    1.5969558 
     150          0.3    1.4893271    2.2333288    -4.229299   -1.9959702    1.5044863 
     200          0.4     1.477059    2.2149321    -4.210441   -1.9955089    1.5662508 
     250          0.5    1.4782727    2.2167521   -4.2122595   -1.9955074     1.569173 
     300          0.6    1.4834529      2.22452   -4.2201737   -1.9956537    1.5708632 
     350          0.7    1.4862009    2.2286408   -4.2250145   -1.9963736     1.581223 
     400          0.8    1.4715024    2.2065997   -4.2027055   -1.9961058    1.6663084 
     450          0.9    1.4791501    2.2180677   -4.2140712   -1.9960035    1.5870583 
     500            1    1.4706316    2.2052937   -4.2009147    -1.995621    1.6401667 
     550          1.1    1.4758334    2.2130942   -4.2084339   -1.9953398    1.6095934 
     600          1.2    1.4889957    2.2328317   -4.2284192   -1.9955875    1.5430742 
     650          1.3    1.4724477    2.2080172   -4.2033966   -1.9953794    1.6212215 
     700          1.4    1.4861713    2.2285965   -4.2239578   -1.9953613    1.5111527 
     750          1.5    1.4914408    2.2364983   -4.2317204    -1.995222    1.5004538 
     800          1.6    1.4745431    2.2111593   -4.2065128   -1.9953535    1.5937712 
     850          1.7    1.4858625    2.2281333   -4.2233911   -1.9952577    1.5432277 
     900          1.8    1.4698794    2.2041658   -4.1993597   -1.9951939    1.6052624 
     950          1.9    1.4702491    2.2047203   -4.2002979   -1.9955777    1.6314922 
    1000            2    1.4721926    2.2076347   -4.2029325   -1.9952979    1.6212671 
    1050          2.1    1.4689985    2.2028448   -4.1985419   -1.9956971    1.6130722 
    1100          2.2    1.4851301    2.2270351   -4.2228938   -1.9958586    1.5095075 
    1150          2.3    1.4730508    2.2089215   -4.2054213   -1.9964998     1.606457 
    1200          2.4     1.481726    2.2219305   -4.2175523   -1.9956218     1.576683 
    1250          2.5    1.4714863    2.2065754   -4.2024732   -1.9958978    1.6661324 
    1300          2.6    1.4888069    2.2325487    -4.228432   -1.9958834    1.5723595 
    1350          2.7    1.4920719    2.2374447   -4.2330977   -1.9956531    1.5234102 
    1400          2.8    1.4717914    2.2070329   -4.2020236   -1.9949906    1.6466242 
    1450          2.9     1.488901    2.2326897   -4.2282324   -1.9955427    1.5591911 
    1500            3    1.4697587    2.2039849   -4.1997092   -1.9957243    1.6302006 
    1550          3.1    1.4622188    2.1926784   -4.1886139   -1.9959355    1.6609892 
    1600          3.2    1.4841047    2.2254975   -4.2213215    -1.995824     1.556916 
    1650          3.3     1.466239    2.1987068   -4.1943389   -1.9956321    1.6395893 
    1700          3.4    1.4910108    2.2358535   -4.2311597   -1.9953062    1.5307594 
    1750          3.5    1.4722212    2.2076775   -4.2027687   -1.9950912    1.6462089 
    1800          3.6    1.4807818    2.2205145   -4.2163171   -1.9958026    1.6026319 
    1850          3.7    1.4944284    2.2409784   -4.2369043   -1.9959258    1.5171337 
    1900          3.8    1.4959048    2.2431924   -4.2384493   -1.9952569    1.5151944 
    1950          3.9    1.4722659    2.2077446   -4.2031266   -1.9953821    1.6469616 
    2000            4     1.487775    2.2310013   -4.2269598   -1.9959586    1.5505635 
    2050          4.1    1.4916409    2.2367984   -4.2329039   -1.9961055    1.5059693 
    2100          4.2    1.4676548    2.2008299   -4.1968986   -1.9960687    1.6118468 
    2150          4.3     1.483323    2.2243253    -4.220175   -1.9958497    1.5516904 
    2200          4.4    1.4736476    2.2098165   -4.2057823   -1.9959658    1.6078727 
    2250          4.5    1.4943515    2.2408631   -4.2364629   -1.9955998    1.4957712 
    2300          4.6    1.4694566    2.2035318   -4.1991976   -1.9956658    1.6212926 
    2350          4.7    1.4695327    2.2036459   -4.1994251   -1.9957792    1.6104876 
    2400          4.8    1.4651113    2.1970159   -4.1931756   -1.9961597    1.6282332 
    2450          4.9    1.4807263    2.2204313   -4.2161368   -1.9957055    1.6173459 
    2500            5    1.4789496    2.2177672   -4.2135491   -1.9957819    1.6484768 
Loop time of 9.20502 on 1 procs for 2500 steps with 3375 atoms

Performance: 46930.902 tau/day, 271.591 timesteps/s
99.7% CPU use with 1 MPI tasks x no OpenMP threads

MPI task timing breakdown:
Section |  min time  |  avg time  |  max time  |%varavg| %total
---------------------------------------------------------------
Pair    | 8.1343     | 8.1343     | 8.1343     |   0.0 | 88.37
Neigh   | 0.77471    | 0.77471    | 0.77471    |   0.0 |  8.42
Comm    | 0.1057     | 0.1057     | 0.1057     |   0.0 |  1.15
Output  | 0.00080803 | 0.00080803 | 0.00080803 |   0.0 |  0.01
Modify  | 0.16378    | 0.16378    | 0.16378    |   0.0 |  1.78
Other   |            | 0.02567    |            |       |  0.28

Nlocal:        3375.00 ave        3375 max        3375 min
Histogram: 1 0 0 0 0 0 0 0 0 0
Nghost:        5569.00 ave        5569 max        5569 min
Histogram: 1 0 0 0 0 0 0 0 0 0
Neighs:        169052.0 ave      169052 max      169052 min
Histogram: 1 0 0 0 0 0 0 0 0 0

Total # of neighbors = 169052
Ave neighs/atom = 50.089481
Neighbor list builds = 125
Dangerous builds not checked
variable        diff_accum equal ${diff_accum}+${diff_integ}/(3*${loop_iterations})
variable        diff_accum equal 0.051034738656888+${diff_integ}/(3*${loop_iterations})
variable        diff_accum equal 0.051034738656888+0.577684169447709/(3*${loop_iterations})
variable        diff_accum equal 0.051034738656888+0.577684169447709/(3*25)
unfix           fixVACF
write_data      liquid.T${temp}.rho${rho}.data
write_data      liquid.T1.5.rho${rho}.data
write_data      liquid.T1.5.rho0.67.data
System init for write_data ...
print           "" append log.vacf.T${temp}.rho${rho}.txt screen no
print           "" append log.vacf.T1.5.rho${rho}.txt screen no
print           "" append log.vacf.T1.5.rho0.67.txt screen no

next            loop_counter
jump            SELF loop
clear

pair_style	lj/smooth 2.5 3.0

read_data       liquid.T${temp}.rho${rho}.data
read_data       liquid.T1.5.rho${rho}.data
read_data       liquid.T1.5.rho0.67.data
Reading data file ...
  orthogonal box = (0.0000000 0.0000000 0.0000000) to (17.142191 17.142191 17.142191)
  1 by 1 by 1 MPI processor grid
  reading atoms ...
  3375 atoms
  reading velocities ...
  3375 velocities
  read_data CPU = 0.009 seconds

neighbor	0.3 bin
neigh_modify	every 20 delay 0 check no

fix		1 all nve
timestep        0.002
thermo		50

reset_timestep  0
compute         myVACF all vacf

fix             fixVACF all vector 1 c_myVACF[4]
variable        diff_integ equal dt*trap(f_fixVACF)
variable        curVACF equal c_myVACF[4]

variable        step0 equal step
variable        step0 equal $(v_step0)
variable        step0 equal 0
variable        dtime equal (step-${step0})*dt
variable        dtime equal (step-0)*dt
fix             print_vacf all print 2 "${dtime} ${curVACF} ${diff_integ}" append log.vacf.T${temp}.rho${rho}.txt screen no
fix             print_vacf all print 2 "${dtime} ${curVACF} ${diff_integ}" append log.vacf.T1.5.rho${rho}.txt screen no
fix             print_vacf all print 2 "${dtime} ${curVACF} ${diff_integ}" append log.vacf.T1.5.rho0.67.txt screen no
thermo_style	custom step time temp ke pe etotal press

run             ${loop_length}
run             2500
Neighbor list info ...
  update every 20 steps, delay 0 steps, check no
  max neighbors/atom: 2000, page size: 100000
  master list distance cutoff = 3.3
  ghost atom cutoff = 3.3
  binsize = 1.65, bins = 11 11 11
  1 neighbor lists, perpetual/occasional/extra = 1 0 0
  (1) pair lj/smooth, perpetual
      attributes: half, newton on
      pair build: half/bin/atomonly/newton
      stencil: half/bin/3d
      bin: standard
Per MPI rank memory allocation (min/avg/max) = 3.558 | 3.558 | 3.558 Mbytes
Step Time Temp KinEng PotEng TotEng Press 
       0            0    1.4789496    2.2177672   -4.2135491   -1.9957819    1.6484768 
      50          0.1    1.5020013    2.2523344   -4.2481213   -1.9957869    1.4762405 
     100          0.2     1.469061    2.2029386   -4.1985366   -1.9955979    1.6419088 
     150          0.3    1.4747183     2.211422   -4.2071349   -1.9957129    1.6458687 
     200          0.4    1.4762159    2.2136677   -4.2093499   -1.9956821    1.6216603 
     250          0.5    1.4751227    2.2120285   -4.2073897   -1.9953612    1.5950272 
     300          0.6    1.4940317    2.2403835   -4.2356762   -1.9952927    1.5038545 
     350          0.7    1.4730899    2.2089801   -4.2043615   -1.9953814    1.6352492 
     400          0.8    1.4923039    2.2377925   -4.2334996   -1.9957071    1.5141822 
     450          0.9    1.4819698    2.2222961   -4.2179572   -1.9956611     1.548929 
     500            1    1.4756566    2.2128291    -4.208625    -1.995796    1.6308968 
     550          1.1    1.4695313    2.2036438   -4.1994114   -1.9957676    1.6724711 
     600          1.2    1.4744646    2.2110416   -4.2067342   -1.9956927    1.6445563 
     650          1.3    1.4894364    2.2334927   -4.2290904   -1.9955978    1.5434903 
     700          1.4    1.4704966    2.2050914   -4.2005597   -1.9954684    1.6109357 
     750          1.5    1.4805804    2.2202125   -4.2156997   -1.9954872    1.5856581 
     800          1.6    1.4641686    2.1956022   -4.1910242    -1.995422    1.6850221 
     850          1.7    1.4751557    2.2120779   -4.2078149   -1.9957371    1.6197794 
     900          1.8    1.4754547    2.2125264   -4.2084503   -1.9959239    1.6273605 
     950          1.9    1.4852374     2.227196   -4.2231677   -1.9959716    1.5392623 
    1000            2    1.4839206    2.2252214   -4.2210584    -1.995837    1.5120859 
    1050          2.1    1.4999181    2.2492105   -4.2451388   -1.9959283     1.405503 
    1100          2.2    1.4682434    2.2017126   -4.1976865   -1.9959739    1.5819338 
    1150          2.3    1.4688384    2.2026048   -4.1980461   -1.9954413    1.6348169 
    1200          2.4    1.4723785    2.2079133   -4.2035797   -1.9956664    1.6019437 
    1250          2.5    1.4788842    2.2176689   -4.2134096   -1.9957406    1.5533473 
    1300          2.6    1.4825827    2.2232151    -4.218924    -1.995709    1.5543031 
    1350          2.7    1.4711582    2.2060835   -4.2014764   -1.9953929    1.6284624 
    1400          2.8    1.4862383    2.2286969   -4.2239768   -1.9952799    1.5427948 
    1450          2.9    1.4753596    2.2123837   -4.2073844   -1.9950007    1.5814209 
    1500            3    1.4899168     2.234213   -4.2295658   -1.9953528    1.5196888 
    1550          3.1     1.474813     2.211564   -4.2075226   -1.9959585    1.5686878 
    1600          3.2    1.4748338    2.2115951   -4.2072234   -1.9956282    1.5773242 
    1650          3.3    1.4713174    2.2063222   -4.2017102    -1.995388    1.6281415 
    1700          3.4    1.4717668     2.206996   -4.2024959   -1.9954998    1.6310253 
    1750          3.5    1.4968395     2.244594   -4.2400274   -1.9954334    1.4896515 
    1800          3.6    1.4966668    2.2443351   -4.2399873   -1.9956523    1.5070934 
    1850          3.7    1.4988452    2.2476017   -4.2432033   -1.9956016    1.4831525 
    1900          3.8    1.4858515    2.2281168   -4.2237488    -1.995632    1.5623871 
    1950          3.9    1.4885652    2.2321863   -4.2274054   -1.9952191     1.556748 
    2000            4    1.4927873    2.2385174   -4.2338824    -1.995365    1.5152372 
    2050          4.1    1.4831949    2.2241332   -4.2198343   -1.9957011    1.5592139 
    2100          4.2    1.4700841    2.2044728   -4.2003892   -1.9959165    1.5929455 
    2150          4.3    1.4623771    2.1929157   -4.1885275   -1.9956117    1.6438108 
    2200          4.4    1.4772982    2.2152907   -4.2111256   -1.9958349    1.5769108 
    2250          4.5    1.4897871    2.2340186   -4.2299153   -1.9958967    1.5276397 
    2300          4.6    1.4717874     2.207027   -4.2028005   -1.9957734       1.6639 
    2350          4.7    1.4841445    2.2255571   -4.2212529   -1.9956958    1.6016916 
    2400          4.8    1.4778609    2.2161345   -4.2113086    -1.995174    1.5718853 
    2450          4.9    1.4926206    2.2382675   -4.2332739   -1.9950063    1.4781984 
    2500            5     1.483755     2.224973   -4.2205892   -1.9956162    1.5390774 
Loop time of 9.18611 on 1 procs for 2500 steps with 3375 atoms

Performance: 47027.544 tau/day, 272.150 timesteps/s
99.7% CPU use with 1 MPI tasks x no OpenMP threads

MPI task timing breakdown:
Section |  min time  |  avg time  |  max time  |%varavg| %total
---------------------------------------------------------------
Pair    | 8.1257     | 8.1257     | 8.1257     |   0.0 | 88.46
Neigh   | 0.76287    | 0.76287    | 0.76287    |   0.0 |  8.30
Comm    | 0.10569    | 0.10569    | 0.10569    |   0.0 |  1.15
Output  | 0.00082149 | 0.00082149 | 0.00082149 |   0.0 |  0.01
Modify  | 0.16531    | 0.16531    | 0.16531    |   0.0 |  1.80
Other   |            | 0.02571    |            |       |  0.28

Nlocal:        3375.00 ave        3375 max        3375 min
Histogram: 1 0 0 0 0 0 0 0 0 0
Nghost:        5562.00 ave        5562 max        5562 min
Histogram: 1 0 0 0 0 0 0 0 0 0
Neighs:        169213.0 ave      169213 max      169213 min
Histogram: 1 0 0 0 0 0 0 0 0 0

Total # of neighbors = 169213
Ave neighs/atom = 50.137185
Neighbor list builds = 125
Dangerous builds not checked
variable        diff_accum equal ${diff_accum}+${diff_integ}/(3*${loop_iterations})
variable        diff_accum equal 0.0587371942495241+${diff_integ}/(3*${loop_iterations})
variable        diff_accum equal 0.0587371942495241+0.593957671208617/(3*${loop_iterations})
variable        diff_accum equal 0.0587371942495241+0.593957671208617/(3*25)
unfix           fixVACF
write_data      liquid.T${temp}.rho${rho}.data
write_data      liquid.T1.5.rho${rho}.data
write_data      liquid.T1.5.rho0.67.data
System init for write_data ...
print           "" append log.vacf.T${temp}.rho${rho}.txt screen no
print           "" append log.vacf.T1.5.rho${rho}.txt screen no
print           "" append log.vacf.T1.5.rho0.67.txt screen no

next            loop_counter
jump            SELF loop
clear

pair_style	lj/smooth 2.5 3.0

read_data       liquid.T${temp}.rho${rho}.data
read_data       liquid.T1.5.rho${rho}.data
read_data       liquid.T1.5.rho0.67.data
Reading data file ...
  orthogonal box = (0.0000000 0.0000000 0.0000000) to (17.142191 17.142191 17.142191)
  1 by 1 by 1 MPI processor grid
  reading atoms ...
  3375 atoms
  reading velocities ...
  3375 velocities
  read_data CPU = 0.009 seconds

neighbor	0.3 bin
neigh_modify	every 20 delay 0 check no

fix		1 all nve
timestep        0.002
thermo		50

reset_timestep  0
compute         myVACF all vacf

fix             fixVACF all vector 1 c_myVACF[4]
variable        diff_integ equal dt*trap(f_fixVACF)
variable        curVACF equal c_myVACF[4]

variable        step0 equal step
variable        step0 equal $(v_step0)
variable        step0 equal 0
variable        dtime equal (step-${step0})*dt
variable        dtime equal (step-0)*dt
fix             print_vacf all print 2 "${dtime} ${curVACF} ${diff_integ}" append log.vacf.T${temp}.rho${rho}.txt screen no
fix             print_vacf all print 2 "${dtime} ${curVACF} ${diff_integ}" append log.vacf.T1.5.rho${rho}.txt screen no
fix             print_vacf all print 2 "${dtime} ${curVACF} ${diff_integ}" append log.vacf.T1.5.rho0.67.txt screen no
thermo_style	custom step time temp ke pe etotal press

run             ${loop_length}
run             2500
Neighbor list info ...
  update every 20 steps, delay 0 steps, check no
  max neighbors/atom: 2000, page size: 100000
  master list distance cutoff = 3.3
  ghost atom cutoff = 3.3
  binsize = 1.65, bins = 11 11 11
  1 neighbor lists, perpetual/occasional/extra = 1 0 0
  (1) pair lj/smooth, perpetual
      attributes: half, newton on
      pair build: half/bin/atomonly/newton
      stencil: half/bin/3d
      bin: standard
Per MPI rank memory allocation (min/avg/max) = 3.559 | 3.559 | 3.559 Mbytes
Step Time Temp KinEng PotEng TotEng Press 
       0            0     1.483755     2.224973   -4.2205892   -1.9956162    1.5390774 
      50          0.1    1.4800819     2.219465   -4.2152849   -1.9958199    1.5905261 
     100          0.2    1.4720198    2.2073755   -4.2033161   -1.9959406    1.6534087 
     150          0.3    1.4754511    2.2125209   -4.2087196   -1.9961987    1.6260452 
     200          0.4    1.4707492    2.2054702   -4.2017256   -1.9962554    1.6385337 
     250          0.5    1.4775131     2.215613   -4.2120385   -1.9964254    1.6332905 
     300          0.6    1.4802151    2.2196648   -4.2161286   -1.9964638    1.6245144 
     350          0.7    1.4719177    2.2072223    -4.203454   -1.9962317    1.6890336 
     400          0.8     1.473265    2.2092427   -4.2050679   -1.9958252    1.6470877 
     450          0.9    1.4902829     2.234762   -4.2304606   -1.9956985    1.5539825 
     500            1    1.4884559    2.2320223   -4.2277062   -1.9956839    1.5453181 
     550          1.1    1.4724082    2.2079579   -4.2035545   -1.9955966    1.6312406 
     600          1.2    1.4865395    2.2291485   -4.2251734   -1.9960249    1.5385841 
     650          1.3    1.4794337     2.218493    -4.214727    -1.996234    1.5789247 
     700          1.4    1.4797018    2.2188951   -4.2150015   -1.9961065    1.5592834 
     750          1.5    1.4693458    2.2033657   -4.1994651   -1.9960994    1.6122473 
     800          1.6    1.4765313    2.2141407   -4.2099854   -1.9958447    1.5938615 
     850          1.7    1.4891672    2.2330889   -4.2286623   -1.9955734    1.5276935 
     900          1.8    1.4943584    2.2408734   -4.2366095   -1.9957361    1.5050918 
     950          1.9    1.4804788    2.2200602   -4.2161845   -1.9961243    1.5834384 
    1000            2    1.4961433      2.24355   -4.2393951   -1.9958451    1.5327241 
    1050          2.1    1.4720568     2.207431   -4.2035291   -1.9960982    1.6552731 
    1100          2.2    1.4997211    2.2489151   -4.2449195   -1.9960044    1.5077044 
    1150          2.3    1.4831133    2.2240108    -4.219866   -1.9958552    1.5729359 
    1200          2.4     1.487659    2.2308273   -4.2267627   -1.9959353    1.5451138 
    1250          2.5    1.4743244    2.2108314   -4.2066712   -1.9958397    1.6374375 
    1300          2.6    1.4899532    2.2342676   -4.2298518   -1.9955842     1.493664 
    1350          2.7    1.4790931    2.2179823   -4.2135977   -1.9956153    1.5420594 
    1400          2.8    1.4743327    2.2108438   -4.2065148    -1.995671    1.5889572 
    1450          2.9    1.4811282     2.221034   -4.2163197   -1.9952856     1.576033 
    1500            3    1.4718391    2.2071045   -4.2023298   -1.9952254    1.5702476 
    1550          3.1    1.4679534    2.2012776   -4.1968517   -1.9955741    1.5721772 
    1600          3.2    1.4829562    2.2237752    -4.219201   -1.9954258    1.4840161 
    1650          3.3    1.4774845    2.2155701   -4.2112931    -1.995723    1.5503004 
    1700          3.4    1.4940924    2.2404745   -4.2363546   -1.9958801    1.4656933 
    1750          3.5     1.469372     2.203405   -4.1991322   -1.9957272     1.577864 
[...]
    1850          3.7    1.4942291    2.2406795   -4.2365031   -1.9958236    1.5273577 
    1900          3.8    1.4766419    2.2143065   -4.2101796   -1.9958731    1.6045797 
    1950          3.9     1.500082    2.2494563   -4.2451887   -1.9957324    1.4709294 
    2000            4    1.4885207    2.2321195    -4.228006   -1.9958865    1.5839391 
    2050          4.1    1.5004672    2.2500339   -4.2458106   -1.9957767    1.5377939 
    2100          4.2    1.4917893     2.237021   -4.2329197   -1.9958987    1.5732115 
    2150          4.3    1.4769043    2.2147001   -4.2106883   -1.9959882    1.6360898 
    2200          4.4    1.4772412    2.2152052   -4.2114413   -1.9962361    1.6236374 
    2250          4.5    1.4861789    2.2286079   -4.2246727   -1.9960648    1.5631301 
    2300          4.6    1.4607666    2.1905007   -4.1861891   -1.9956884    1.6648581 
    2350          4.7    1.4686043    2.2022538   -4.1977578    -1.995504    1.6334308 
    2400          4.8    1.4824267    2.2229812   -4.2186274   -1.9956461     1.585394 
    2450          4.9    1.4913436    2.2363526   -4.2322065   -1.9958539    1.5403822 
    2500            5    1.4723605    2.2078863   -4.2034263   -1.9955399    1.6456099 
Loop time of 9.17604 on 1 procs for 2500 steps with 3375 atoms

Performance: 47079.144 tau/day, 272.449 timesteps/s
99.8% CPU use with 1 MPI tasks x no OpenMP threads

MPI task timing breakdown:
Section |  min time  |  avg time  |  max time  |%varavg| %total
---------------------------------------------------------------
Pair    | 8.1113     | 8.1113     | 8.1113     |   0.0 | 88.40
Neigh   | 0.77099    | 0.77099    | 0.77099    |   0.0 |  8.40
Comm    | 0.10384    | 0.10384    | 0.10384    |   0.0 |  1.13
Output  | 0.0007973  | 0.0007973  | 0.0007973  |   0.0 |  0.01
Modify  | 0.1636     | 0.1636     | 0.1636     |   0.0 |  1.78
Other   |            | 0.02553    |            |       |  0.28

Nlocal:        3375.00 ave        3375 max        3375 min
Histogram: 1 0 0 0 0 0 0 0 0 0
Nghost:        5493.00 ave        5493 max        5493 min
Histogram: 1 0 0 0 0 0 0 0 0 0
Neighs:        169309.0 ave      169309 max      169309 min
Histogram: 1 0 0 0 0 0 0 0 0 0

Total # of neighbors = 169309
Ave neighs/atom = 50.165630
Neighbor list builds = 125
Dangerous builds not checked
variable        diff_accum equal ${diff_accum}+${diff_integ}/(3*${loop_iterations})
variable        diff_accum equal 0.167347248776052+${diff_integ}/(3*${loop_iterations})
variable        diff_accum equal 0.167347248776052+0.618795566094163/(3*${loop_iterations})
variable        diff_accum equal 0.167347248776052+0.618795566094163/(3*25)
unfix           fixVACF
write_data      liquid.T${temp}.rho${rho}.data
write_data      liquid.T1.5.rho${rho}.data
write_data      liquid.T1.5.rho0.67.data
System init for write_data ...
print           "" append log.vacf.T${temp}.rho${rho}.txt screen no
print           "" append log.vacf.T1.5.rho${rho}.txt screen no
print           "" append log.vacf.T1.5.rho0.67.txt screen no

next            loop_counter
jump            SELF loop
clear

pair_style	lj/smooth 2.5 3.0

read_data       liquid.T${temp}.rho${rho}.data
read_data       liquid.T1.5.rho${rho}.data
read_data       liquid.T1.5.rho0.67.data
Reading data file ...
  orthogonal box = (0.0000000 0.0000000 0.0000000) to (17.142191 17.142191 17.142191)
  1 by 1 by 1 MPI processor grid
  reading atoms ...
  3375 atoms
  reading velocities ...
  3375 velocities
  read_data CPU = 0.009 seconds

neighbor	0.3 bin
neigh_modify	every 20 delay 0 check no

fix		1 all nve
timestep        0.002
thermo		50

reset_timestep  0
compute         myVACF all vacf

fix             fixVACF all vector 1 c_myVACF[4]
variable        diff_integ equal dt*trap(f_fixVACF)
variable        curVACF equal c_myVACF[4]

variable        step0 equal step
variable        step0 equal $(v_step0)
variable        step0 equal 0
variable        dtime equal (step-${step0})*dt
variable        dtime equal (step-0)*dt
fix             print_vacf all print 2 "${dtime} ${curVACF} ${diff_integ}" append log.vacf.T${temp}.rho${rho}.txt screen no
fix             print_vacf all print 2 "${dtime} ${curVACF} ${diff_integ}" append log.vacf.T1.5.rho${rho}.txt screen no
fix             print_vacf all print 2 "${dtime} ${curVACF} ${diff_integ}" append log.vacf.T1.5.rho0.67.txt screen no
thermo_style	custom step time temp ke pe etotal press

run             ${loop_length}
run             2500
Neighbor list info ...
  update every 20 steps, delay 0 steps, check no
  max neighbors/atom: 2000, page size: 100000
  master list distance cutoff = 3.3
  ghost atom cutoff = 3.3
  binsize = 1.65, bins = 11 11 11
  1 neighbor lists, perpetual/occasional/extra = 1 0 0
  (1) pair lj/smooth, perpetual
      attributes: half, newton on
      pair build: half/bin/atomonly/newton
      stencil: half/bin/3d
      bin: standard
Per MPI rank memory allocation (min/avg/max) = 3.556 | 3.556 | 3.556 Mbytes
Step Time Temp KinEng PotEng TotEng Press 
       0            0    1.4723605    2.2078863   -4.2034263   -1.9955399    1.6456099 
      50          0.1    1.4917933     2.237027   -4.2330798   -1.9960529    1.5616962 
     100          0.2    1.4931372    2.2390421   -4.2353987   -1.9963566    1.5470358 
     150          0.3    1.4659637     2.198294   -4.1940209   -1.9957269    1.6697552 
     200          0.4     1.470295     2.204789   -4.2009247   -1.9961358    1.6335166 
     250          0.5    1.4935134    2.2396063   -4.2356475   -1.9960412    1.5252158 
     300          0.6     1.481075    2.2209542   -4.2169504   -1.9959962    1.6010848 
     350          0.7    1.4925666    2.2381865   -4.2341539   -1.9959674    1.5270757 
     400          0.8    1.4934831    2.2395609   -4.2353429    -1.995782    1.5158898 
     450          0.9    1.4944477    2.2410074   -4.2367686   -1.9957613    1.5252804 
     500            1    1.4641251    2.1955369   -4.1912734   -1.9957364    1.6784349 
     550          1.1    1.4807072    2.2204027   -4.2161226   -1.9957199    1.5967381 
     600          1.2    1.5030869    2.2539623   -4.2492961   -1.9953338    1.4841346 
     650          1.3    1.4786543    2.2173243    -4.212631   -1.9953067    1.5783154 
     700          1.4    1.4690136    2.2028675   -4.1986166   -1.9957491    1.6286305 
     750          1.5    1.4775982    2.2157406   -4.2114847   -1.9957441    1.6316616 
     800          1.6    1.4966901    2.2443699   -4.2400453   -1.9956754    1.5460509 
     850          1.7    1.4857262     2.227929   -4.2241395   -1.9962105    1.5601949 
     900          1.8    1.4616913    2.1918874   -4.1878114   -1.9959241    1.6398259 
     950          1.9    1.4810101    2.2208569   -4.2168796   -1.9960228    1.5418191 
    1000            2     1.495166    2.2420845   -4.2379699   -1.9958855    1.4964945 
    1050          2.1    1.4792142    2.2181639   -4.2139235   -1.9957596    1.5633865 
    1100          2.2    1.4765197    2.2141233   -4.2097811   -1.9956578    1.5820788 
    1150          2.3    1.4955137    2.2426058   -4.2384654   -1.9958596     1.469629 
    1200          2.4    1.4776462    2.2158125   -4.2115196   -1.9957071    1.5469982 
    1250          2.5    1.4859836     2.228315   -4.2239196   -1.9956046    1.5169841 
    1300          2.6    1.4709141    2.2057173   -4.2013306   -1.9956132    1.6553255 
    1350          2.7    1.4775487    2.2156664   -4.2114979   -1.9958315    1.6461029 
    1400          2.8    1.4717415    2.2069582   -4.2026325   -1.9956743    1.6429016 
    1450          2.9     1.477575    2.2157058   -4.2116681   -1.9959623    1.6009585 
    1500            3      1.47135    2.2063711   -4.2022668   -1.9958956    1.6477549 
    1550          3.1    1.4795304    2.2186381    -4.214219   -1.9955809     1.622508 
    1600          3.2    1.4795784    2.2187101   -4.2138904   -1.9951803    1.5999497 
    1650          3.3    1.4834989     2.224589   -4.2199915   -1.9954025    1.5478355 
    1700          3.4     1.486576    2.2292033    -4.224681   -1.9954777    1.5296222 
    1750          3.5    1.4702478    2.2047182   -4.2006999   -1.9959817    1.6433667 
    1800          3.6    1.4885808    2.2322096   -4.2280578   -1.9958482    1.5273671 
    1850          3.7    1.4905428    2.2351518    -4.230638   -1.9954862     1.507865 
    1900          3.8    1.4834445    2.2245074   -4.2202058   -1.9956984    1.5854546 
    1950          3.9    1.4777579    2.2159801   -4.2117914   -1.9958112     1.607617 
    2000            4    1.4867061    2.2293984   -4.2251039   -1.9957055    1.5851175 
    2050          4.1     1.473914    2.2102159   -4.2063263   -1.9961104    1.6301307 
    2100          4.2    1.4992382     2.248191   -4.2441147   -1.9959237    1.4857058 
    2150          4.3     1.502995    2.2538245   -4.2495887   -1.9957642    1.4521678 
    2200          4.4    1.4808605    2.2206325   -4.2165482   -1.9959156    1.5955431 
    2250          4.5    1.4992463    2.2482031   -4.2440302   -1.9958271    1.5124364 
    2300          4.6       1.4733    2.2092952   -4.2048904   -1.9955952    1.6681731 
    2350          4.7    1.4668939    2.1996889   -4.1952114   -1.9955225    1.6908968 
    2400          4.8    1.4775611    2.2156849   -4.2115151   -1.9958302    1.6133018 
    2450          4.9    1.4832781    2.2242579   -4.2201499   -1.9958919    1.5680687 
    2500            5    1.4682297    2.2016921   -4.1971772   -1.9954851    1.6366426 
Loop time of 9.17927 on 1 procs for 2500 steps with 3375 atoms

Performance: 47062.585 tau/day, 272.353 timesteps/s
99.8% CPU use with 1 MPI tasks x no OpenMP threads

MPI task timing breakdown:
Section |  min time  |  avg time  |  max time  |%varavg| %total
---------------------------------------------------------------
Pair    | 8.1168     | 8.1168     | 8.1168     |   0.0 | 88.43
Neigh   | 0.76419    | 0.76419    | 0.76419    |   0.0 |  8.33
Comm    | 0.10547    | 0.10547    | 0.10547    |   0.0 |  1.15
Output  | 0.00078881 | 0.00078881 | 0.00078881 |   0.0 |  0.01
Modify  | 0.16624    | 0.16624    | 0.16624    |   0.0 |  1.81
Other   |            | 0.02577    |            |       |  0.28

Nlocal:        3375.00 ave        3375 max        3375 min
Histogram: 1 0 0 0 0 0 0 0 0 0
Nghost:        5516.00 ave        5516 max        5516 min
Histogram: 1 0 0 0 0 0 0 0 0 0
Neighs:        169079.0 ave      169079 max      169079 min
Histogram: 1 0 0 0 0 0 0 0 0 0

Total # of neighbors = 169079
Ave neighs/atom = 50.097481
Neighbor list builds = 125
Dangerous builds not checked
variable        diff_accum equal ${diff_accum}+${diff_integ}/(3*${loop_iterations})
variable        diff_accum equal 0.175597856323974+${diff_integ}/(3*${loop_iterations})
variable        diff_accum equal 0.175597856323974+0.526241095715755/(3*${loop_iterations})
variable        diff_accum equal 0.175597856323974+0.526241095715755/(3*25)
unfix           fixVACF
write_data      liquid.T${temp}.rho${rho}.data
write_data      liquid.T1.5.rho${rho}.data
write_data      liquid.T1.5.rho0.67.data
System init for write_data ...
print           "" append log.vacf.T${temp}.rho${rho}.txt screen no
print           "" append log.vacf.T1.5.rho${rho}.txt screen no
print           "" append log.vacf.T1.5.rho0.67.txt screen no

next            loop_counter
jump            SELF loop
clear

pair_style	lj/smooth 2.5 3.0

read_data       liquid.T${temp}.rho${rho}.data
read_data       liquid.T1.5.rho${rho}.data
read_data       liquid.T1.5.rho0.67.data
Reading data file ...
  orthogonal box = (0.0000000 0.0000000 0.0000000) to (17.142191 17.142191 17.142191)
  1 by 1 by 1 MPI processor grid
  reading atoms ...
  3375 atoms
  reading velocities ...
  3375 velocities
  read_data CPU = 0.009 seconds

neighbor	0.3 bin
neigh_modify	every 20 delay 0 check no

fix		1 all nve
timestep        0.002
thermo		50

reset_timestep  0
compute         myVACF all vacf

fix             fixVACF all vector 1 c_myVACF[4]
variable        diff_integ equal dt*trap(f_fixVACF)
variable        curVACF equal c_myVACF[4]

variable        step0 equal step
variable        step0 equal $(v_step0)
variable        step0 equal 0
variable        dtime equal (step-${step0})*dt
variable        dtime equal (step-0)*dt
fix             print_vacf all print 2 "${dtime} ${curVACF} ${diff_integ}" append log.vacf.T${temp}.rho${rho}.txt screen no
fix             print_vacf all print 2 "${dtime} ${curVACF} ${diff_integ}" append log.vacf.T1.5.rho${rho}.txt screen no
fix             print_vacf all print 2 "${dtime} ${curVACF} ${diff_integ}" append log.vacf.T1.5.rho0.67.txt screen no
thermo_style	custom step time temp ke pe etotal press

run             ${loop_length}
run             2500
Neighbor list info ...
  update every 20 steps, delay 0 steps, check no
  max neighbors/atom: 2000, page size: 100000
  master list distance cutoff = 3.3
  ghost atom cutoff = 3.3
  binsize = 1.65, bins = 11 11 11
  1 neighbor lists, perpetual/occasional/extra = 1 0 0
  (1) pair lj/smooth, perpetual
      attributes: half, newton on
      pair build: half/bin/atomonly/newton
      stencil: half/bin/3d
      bin: standard
Per MPI rank memory allocation (min/avg/max) = 3.555 | 3.555 | 3.555 Mbytes
Step Time Temp KinEng PotEng TotEng Press 
       0            0    1.4682297    2.2016921   -4.1971772   -1.9954851    1.6366426 
      50          0.1    1.4707873    2.2055273   -4.2009166   -1.9953893    1.6251922 
     100          0.2     1.489849    2.2341113   -4.2294839   -1.9953726    1.5360589 
     150          0.3    1.4871922    2.2301274    -4.225783   -1.9956557     1.521071 
     200          0.4     1.494384    2.2409118   -4.2368285   -1.9959167    1.4987137 
     250          0.5    1.4934206    2.2394672   -4.2351838   -1.9957166    1.4999877 
     300          0.6     1.487293    2.2302784   -4.2260514    -1.995773    1.5559902 
     350          0.7    1.4757482    2.2129664   -4.2082289   -1.9952625    1.6145222 
     400          0.8    1.4821655    2.2225896   -4.2176235   -1.9950339    1.5845355 
     450          0.9     1.497532    2.2456324   -4.2410521   -1.9954197    1.5201839 
     500            1    1.4738718    2.2101527   -4.2056753   -1.9955227    1.6579104 
     550          1.1    1.4936778    2.2398529   -4.2354126   -1.9955597    1.5132704 
     600          1.2    1.4785021     2.217096   -4.2131816   -1.9960856     1.560328 
     650          1.3    1.4892832    2.2332629    -4.228616    -1.995353     1.520413 
     700          1.4    1.4848324    2.2265886   -4.2218714   -1.9952828    1.5487398 
     750          1.5    1.4970535     2.244915   -4.2403837   -1.9954688    1.4649844 
     800          1.6    1.4774772    2.2155592   -4.2107199   -1.9951607    1.5338357 
     850          1.7    1.4722817    2.2077682     -4.20323   -1.9954618    1.6111326 
     900          1.8    1.5009277    2.2507245   -4.2463376   -1.9956131    1.4768496 
     950          1.9    1.4736951    2.2098876   -4.2053738   -1.9954862    1.6395674 
    1000            2    1.4899387    2.2342458   -4.2295057   -1.9952599    1.5410283 
    1050          2.1    1.4885975    2.2322346   -4.2273839   -1.9951493    1.5188123 
    1100          2.2    1.4766343    2.2142952   -4.2098122    -1.995517    1.5298955 
    1150          2.3    1.4733715    2.2094024   -4.2045601   -1.9951578    1.5532608 
    1200          2.4     1.471426     2.206485   -4.2014833   -1.9949983    1.5870042 
    1250          2.5    1.4718094      2.20706   -4.2027527   -1.9956927    1.6156691 
    1300          2.6    1.5035557    2.2546653   -4.2503205   -1.9956552    1.4580404 
    1350          2.7     1.485438    2.2274968   -4.2234027   -1.9959059    1.5911033 
    1400          2.8    1.4936286     2.239779   -4.2357453   -1.9959662    1.5671348 
    1450          2.9    1.4716532    2.2068257   -4.2024455   -1.9956198    1.6457033 
    1500            3    1.4941926    2.2406248   -4.2365297   -1.9959049    1.4943342 
    1550          3.1    1.4842082    2.2256526   -4.2215342   -1.9958816    1.5770372 
    1600          3.2    1.4770421    2.2149067   -4.2108403   -1.9959336     1.596809 
    1650          3.3    1.4929928    2.2388257   -4.2351715   -1.9963458    1.5501828 
    1700          3.4    1.4700207    2.2043777   -4.2005665   -1.9961888    1.6765878 
    1750          3.5    1.4872857    2.2302676   -4.2263852   -1.9961176    1.5543737 
    1800          3.6    1.4892574    2.2332242   -4.2291663   -1.9959421     1.534806 
    1850          3.7    1.4806424    2.2203056   -4.2160499   -1.9957443    1.6194376 
    1900          3.8    1.5016087    2.2517457   -4.2476821   -1.9959364     1.492681 
    1950          3.9    1.4898566    2.2341227   -4.2296718   -1.9955491    1.5477924 
    2000            4    1.4895261    2.2336272    -4.229321   -1.9956938    1.5387014 
    2050          4.1    1.4936729    2.2398455   -4.2358093   -1.9959638    1.4811784 
    2100          4.2    1.4686332    2.2022971   -4.1980809   -1.9957838    1.6557177 
    2150          4.3    1.4777705     2.215999   -4.2122164   -1.9962174    1.6138056 
    2200          4.4    1.4974534    2.2455145   -4.2414976   -1.9959831    1.4972832 
    2250          4.5    1.4863167    2.2288144   -4.2243939   -1.9955795     1.592713 
    2300          4.6    1.4835398    2.2246503   -4.2202179   -1.9955676    1.5995436 
    2350          4.7    1.4665177    2.1991247   -4.1952079   -1.9960832    1.7000459 
    2400          4.8     1.470232    2.2046945   -4.2007439   -1.9960494    1.7034722 
    2450          4.9    1.5026362    2.2532865   -4.2491019   -1.9958154    1.5210847 
    2500            5    1.4889651    2.2327858   -4.2286959     -1.99591    1.5634661 
Loop time of 9.246 on 1 procs for 2500 steps with 3375 atoms

Performance: 46722.928 tau/day, 270.387 timesteps/s
99.8% CPU use with 1 MPI tasks x no OpenMP threads

MPI task timing breakdown:
Section |  min time  |  avg time  |  max time  |%varavg| %total
---------------------------------------------------------------
Pair    | 8.1743     | 8.1743     | 8.1743     |   0.0 | 88.41
Neigh   | 0.77337    | 0.77337    | 0.77337    |   0.0 |  8.36
Comm    | 0.10478    | 0.10478    | 0.10478    |   0.0 |  1.13
Output  | 0.00081145 | 0.00081145 | 0.00081145 |   0.0 |  0.01
Modify  | 0.16695    | 0.16695    | 0.16695    |   0.0 |  1.81
Other   |            | 0.02575    |            |       |  0.28

Nlocal:        3375.00 ave        3375 max        3375 min
Histogram: 1 0 0 0 0 0 0 0 0 0
Nghost:        5630.00 ave        5630 max        5630 min
Histogram: 1 0 0 0 0 0 0 0 0 0
Neighs:        169056.0 ave      169056 max      169056 min
Histogram: 1 0 0 0 0 0 0 0 0 0

Total # of neighbors = 169056
Ave neighs/atom = 50.090667
Neighbor list builds = 125
Dangerous builds not checked
variable        diff_accum equal ${diff_accum}+${diff_integ}/(3*${loop_iterations})
variable        diff_accum equal 0.182614404266851+${diff_integ}/(3*${loop_iterations})
variable        diff_accum equal 0.182614404266851+0.523431477987925/(3*${loop_iterations})
variable        diff_accum equal 0.182614404266851+0.523431477987925/(3*25)
unfix           fixVACF
write_data      liquid.T${temp}.rho${rho}.data
write_data      liquid.T1.5.rho${rho}.data
write_data      liquid.T1.5.rho0.67.data
System init for write_data ...
print           "" append log.vacf.T${temp}.rho${rho}.txt screen no
print           "" append log.vacf.T1.5.rho${rho}.txt screen no
print           "" append log.vacf.T1.5.rho0.67.txt screen no

next            loop_counter
jump            SELF loop

print           "Diffusivity estimate (GK): ${diff_accum}" append log.vacf.T${temp}.rho${rho}.txt
print           "Diffusivity estimate (GK): ${diff_accum}" append log.vacf.T1.5.rho${rho}.txt
print           "Diffusivity estimate (GK): ${diff_accum}" append log.vacf.T1.5.rho0.67.txt
Diffusivity estimate (GK): 0.189593490640023
Total wall time: 0:03:51
