units		lj
atom_style	atomic

timestep	0.002

lattice		sc ${rho} origin 0.5 0.5 0.5
lattice		sc 0.64 origin 0.5 0.5 0.5
Lattice spacing in x,y,z = 1.1603972 1.1603972 1.1603972
region		box block 0 ${nlatt} 0 ${nlatt} 0 ${nlatt}
region		box block 0 15 0 ${nlatt} 0 ${nlatt}
region		box block 0 15 0 15 0 ${nlatt}
region		box block 0 15 0 15 0 15
create_box	1 box
Created orthogonal box = (0.0000000 0.0000000 0.0000000) to (17.405958 17.405958 17.405958)
  1 by 1 by 1 MPI processor grid
create_atoms	1 box
Created 3375 atoms
  using lattice units in orthogonal box = (0.0000000 0.0000000 0.0000000) to (17.405958 17.405958 17.405958)
  create_atoms CPU = 0.001 seconds
mass		1 1.0

velocity	all create ${temp} 87287 mom yes
velocity	all create 1.5 87287 mom yes

pair_style	lj/smooth 2.5 3.0
pair_coeff	1 1 1.0 1.0

neighbor	0.3 bin
neigh_modify	every 20 delay 0 check no

fix		1 all nve

thermo		50
run		1000
Neighbor list info ...
  update every 20 steps, delay 0 steps, check no
  max neighbors/atom: 2000, page size: 100000
  master list distance cutoff = 3.3
  ghost atom cutoff = 3.3
  binsize = 1.65, bins = 11 11 11
  1 neighbor lists, perpetual/occasional/extra = 1 0 0
  (1) pair lj/smooth, perpetual
      attributes: half, newton on
      pair build: half/bin/atomonly/newton
      stencil: half/bin/3d
      bin: standard
Per MPI rank memory allocation (min/avg/max) = 3.194 | 3.194 | 3.194 Mbytes
Step Temp E_pair E_mol TotEng Press 
       0          1.5   -4.6500429            0   -2.4007096   -2.2177297 
      50   0.95003119   -3.8085273            0   -2.3839028   0.89711116 
     100    1.1762668   -4.1343118            0   -2.3704344   0.30913782 
     150    1.2056139   -4.1721704            0   -2.3642854   0.47542193 
     200    1.2004673   -4.1629057            0   -2.3627383   0.60903002 
     250    1.1913966   -4.1491973            0   -2.3626319   0.71318294 
     300     1.217592   -4.1877098            0   -2.3618629   0.58288429 
     350    1.2183532   -4.1888009            0   -2.3618125   0.61222318 
     400    1.2161341   -4.1856387            0   -2.3619781   0.63316571 
     450    1.1978782   -4.1585501            0   -2.3622652   0.71776047 
     500    1.2032783   -4.1668026            0     -2.36242   0.67044645 
     550    1.2132602   -4.1816393            0   -2.3622882   0.60814104 
     600    1.2189123   -4.1899737            0   -2.3621471   0.59138149 
     650     1.218167   -4.1889359            0   -2.3622269   0.64196775 
     700    1.2135035    -4.182409            0   -2.3626931   0.64141551 
     750    1.2026555   -4.1658932            0   -2.3624445   0.70879451 
     800    1.2025933   -4.1654241            0   -2.3620686   0.74427007 
     850    1.2105449   -4.1773304            0    -2.362051   0.69522005 
     900    1.2152734   -4.1851912            0   -2.3628213   0.66940051 
     950    1.2051632   -4.1698085            0   -2.3625994   0.70653583 
    1000    1.2097231   -4.1766261            0   -2.3625792   0.67269004 
Loop time of 3.47062 on 1 procs for 1000 steps with 3375 atoms

Performance: 49789.369 tau/day, 288.133 timesteps/s
99.8% CPU use with 1 MPI tasks x no OpenMP threads

MPI task timing breakdown:
Section |  min time  |  avg time  |  max time  |%varavg| %total
---------------------------------------------------------------
Pair    | 3.0847     | 3.0847     | 3.0847     |   0.0 | 88.88
Neigh   | 0.2992     | 0.2992     | 0.2992     |   0.0 |  8.62
Comm    | 0.040121   | 0.040121   | 0.040121   |   0.0 |  1.16
Output  | 0.00032076 | 0.00032076 | 0.00032076 |   0.0 |  0.01
Modify  | 0.036235   | 0.036235   | 0.036235   |   0.0 |  1.04
Other   |            | 0.01009    |            |       |  0.29

Nlocal:        3375.00 ave        3375 max        3375 min
Histogram: 1 0 0 0 0 0 0 0 0 0
Nghost:        5370.00 ave        5370 max        5370 min
Histogram: 1 0 0 0 0 0 0 0 0 0
Neighs:        161509.0 ave      161509 max      161509 min
Histogram: 1 0 0 0 0 0 0 0 0 0

Total # of neighbors = 161509
Ave neighs/atom = 47.854519
Neighbor list builds = 50
Dangerous builds not checked

fix		2 all langevin ${temp} ${temp} 0.5 7162534 zero yes
fix		2 all langevin 1.5 ${temp} 0.5 7162534 zero yes
fix		2 all langevin 1.5 1.5 0.5 7162534 zero yes

run		2000
Per MPI rank memory allocation (min/avg/max) = 3.194 | 3.194 | 3.194 Mbytes
Step Temp E_pair E_mol TotEng Press 
    1000    1.2097231   -4.1766261            0   -2.3625792   0.67269004 
    1050    1.3116122   -4.1562306            0   -2.1893952   0.79159428 
    1100    1.3481926   -4.1065689            0   -2.0848791    0.9966867 
    1150    1.4048229   -4.1040554            0   -1.9974454    1.0493554 
    1200    1.4307442     -4.09173            0   -1.9462496    1.1092094 
    1250    1.4286518   -4.0783683            0   -1.9360255    1.1783325 
    1300    1.4406047   -4.0714308            0   -1.9111641    1.1973665 
    1350     1.469313   -4.0719601            0   -1.8686436    1.1560584 
    1400    1.4467052   -4.0467555            0   -1.8773406    1.2437806 
    1450    1.4561775   -4.0485542            0   -1.8649351    1.2607152 
    1500    1.5096615    -4.041144            0   -1.7773228    1.2945861 
    1550    1.5306004   -4.0431247            0   -1.7479045    1.2958373 
    1600     1.526664   -4.0066939            0   -1.7173764    1.4527963 
    1650    1.5301988    -4.015772            0   -1.7211538    1.4196875 
    1700    1.5180887   -3.9892841            0   -1.7128257     1.473121 
    1750    1.4979791   -4.0037522            0   -1.7574493    1.4518098 
    1800    1.4881074   -4.0518004            0   -1.8203007    1.2795123 
    1850    1.4817084   -4.0309761            0    -1.809072    1.3485998 
    1900     1.459952   -4.0338971            0    -1.844618    1.2980208 
    1950     1.464462   -4.0281485            0   -1.8321063    1.3206452 
    2000    1.4743307   -4.0455245            0   -1.8346836    1.2920845 
    2050    1.4502736   -4.0300074            0   -1.8552416    1.3326783 
    2100    1.4712021   -4.0381042            0   -1.8319549    1.3023594 
    2150    1.4815145   -4.0355711            0   -1.8139578    1.3214048 
    2200    1.4984153   -4.0329529            0    -1.785996    1.3713948 
    2250    1.4980781   -4.0247017            0   -1.7782504    1.3982298 
    2300    1.5231837   -4.0270568            0   -1.7429581    1.3289619 
    2350    1.5131967   -3.9910877            0   -1.7219652    1.4621444 
    2400    1.5112824   -4.0110986            0   -1.7448466    1.4034721 
    2450    1.4989313   -3.9944286            0   -1.7466979    1.4637635 
    2500    1.5027689    -4.028401            0   -1.7749156    1.3371904 
    2550     1.498144    -4.042132            0   -1.7955819    1.3045504 
    2600    1.5141679   -4.0590924            0   -1.7885136    1.2158534 
    2650    1.5139672   -4.0429773            0   -1.7726993     1.273445 
    2700    1.5168381   -4.0190695            0   -1.7444864     1.390058 
    2750    1.5214727   -4.0273807            0   -1.7458478    1.3367722 
    2800    1.5169163   -4.0181979            0   -1.7434976    1.3284202 
    2850    1.5004737   -4.0240116            0    -1.773968    1.3085234 
    2900    1.5289807   -4.0350182            0   -1.7422267    1.2719835 
    2950    1.4942567    -3.998158            0    -1.757437    1.4084784 
    3000    1.5069941   -4.0332878            0   -1.7734665    1.3270929 
Loop time of 7.32147 on 1 procs for 2000 steps with 3375 atoms

Performance: 47203.646 tau/day, 273.169 timesteps/s
99.8% CPU use with 1 MPI tasks x no OpenMP threads

MPI task timing breakdown:
Section |  min time  |  avg time  |  max time  |%varavg| %total
---------------------------------------------------------------
Pair    | 6.2436     | 6.2436     | 6.2436     |   0.0 | 85.28
Neigh   | 0.60174    | 0.60174    | 0.60174    |   0.0 |  8.22
Comm    | 0.081767   | 0.081767   | 0.081767   |   0.0 |  1.12
Output  | 0.00067111 | 0.00067111 | 0.00067111 |   0.0 |  0.01
Modify  | 0.37371    | 0.37371    | 0.37371    |   0.0 |  5.10
Other   |            | 0.02003    |            |       |  0.27

Nlocal:        3375.00 ave        3375 max        3375 min
Histogram: 1 0 0 0 0 0 0 0 0 0
Nghost:        5416.00 ave        5416 max        5416 min
Histogram: 1 0 0 0 0 0 0 0 0 0
Neighs:        161252.0 ave      161252 max      161252 min
Histogram: 1 0 0 0 0 0 0 0 0 0

Total # of neighbors = 161252
Ave neighs/atom = 47.778370
Neighbor list builds = 100
Dangerous builds not checked

write_data      liquid.T${temp}.rho${rho}.data
write_data      liquid.T1.5.rho${rho}.data
write_data      liquid.T1.5.rho0.64.data
System init for write_data ...
Total wall time: 0:00:11
