shell           rm log.vacf.T${temp}.rho${rho}.txt
shell           rm log.vacf.T1.4.rho${rho}.txt
shell           rm log.vacf.T1.4.rho0.61.txt
WARNING: Shell command 'rm' failed with error 'No such file or directory' (../input.cpp:1234)
units		lj
atom_style	atomic

variable        loop_counter loop ${loop_iterations}
variable        loop_counter loop 25
variable        diff_accum equal 0

label           loop
clear

pair_style	lj/smooth 2.5 3.0

read_data       liquid.T${temp}.rho${rho}.data
read_data       liquid.T1.4.rho${rho}.data
read_data       liquid.T1.4.rho0.61.data
Reading data file ...
  orthogonal box = (0.0000000 0.0000000 0.0000000) to (17.686748 17.686748 17.686748)
  1 by 1 by 1 MPI processor grid
  reading atoms ...
  3375 atoms
  reading velocities ...
  3375 velocities
  read_data CPU = 0.010 seconds

neighbor	0.3 bin
neigh_modify	every 20 delay 0 check no

fix		1 all nve
timestep        0.002
thermo		50

reset_timestep  0
compute         myVACF all vacf

fix             fixVACF all vector 1 c_myVACF[4]
variable        diff_integ equal dt*trap(f_fixVACF)
variable        curVACF equal c_myVACF[4]

variable        step0 equal step
variable        step0 equal $(v_step0)
variable        step0 equal 0
variable        dtime equal (step-${step0})*dt
variable        dtime equal (step-0)*dt
fix             print_vacf all print 2 "${dtime} ${curVACF} ${diff_integ}" append log.vacf.T${temp}.rho${rho}.txt screen no
fix             print_vacf all print 2 "${dtime} ${curVACF} ${diff_integ}" append log.vacf.T1.4.rho${rho}.txt screen no
fix             print_vacf all print 2 "${dtime} ${curVACF} ${diff_integ}" append log.vacf.T1.4.rho0.61.txt screen no
thermo_style	custom step time temp ke pe etotal press

run             ${loop_length}
run             2500
Neighbor list info ...
  update every 20 steps, delay 0 steps, check no
  max neighbors/atom: 2000, page size: 100000
  master list distance cutoff = 3.3
  ghost atom cutoff = 3.3
  binsize = 1.65, bins = 11 11 11
  1 neighbor lists, perpetual/occasional/extra = 1 0 0
  (1) pair lj/smooth, perpetual
      attributes: half, newton on
      pair build: half/bin/atomonly/newton
      stencil: half/bin/3d
      bin: standard
Per MPI rank memory allocation (min/avg/max) = 3.544 | 3.544 | 3.544 Mbytes
Step Time Temp KinEng PotEng TotEng Press 
       0            0    1.3683634    2.0519369   -3.9019986   -1.8500617   0.90131275 
      50          0.1    1.3793097    2.0683514   -3.9181092   -1.8497578   0.80106168 
     100          0.2    1.3750532    2.0619687   -3.9121201   -1.8501514    0.8305608 
     150          0.3    1.3868942     2.079725    -3.929916    -1.850191   0.76217441 
     200          0.4    1.3750043    2.0618953   -3.9120168   -1.8501215   0.82509805 
     250          0.5     1.379029    2.0679306   -3.9176966    -1.849766   0.78393342 
     300          0.6    1.3787466    2.0675071   -3.9177929   -1.8502858   0.79220443 
     350          0.7    1.3700632    2.0544858   -3.9044687   -1.8499829   0.86684274 
     400          0.8    1.3656702    2.0478984   -3.8976239   -1.8497255   0.91328002 
     450          0.9     1.385127    2.0770749    -3.927174   -1.8500991   0.84189504 
     500            1    1.3749073    2.0617499   -3.9117203   -1.8499704   0.88228685 
     550          1.1    1.3681606    2.0516328   -3.9010706   -1.8494378   0.83836364 
     600          1.2       1.3574    2.0354967   -3.8847115   -1.8492148   0.84805372 
     650          1.3    1.3656024    2.0477966   -3.8974262   -1.8496296   0.82714564 
     700          1.4    1.3712166    2.0562155   -3.9057163   -1.8495008   0.79937381 
     750          1.5    1.3693069    2.0533518    -3.903155   -1.8498032   0.80782541 
     800          1.6    1.3673083    2.0503548   -3.9001866   -1.8498318   0.86651137 
     850          1.7    1.3854519     2.077562   -3.9274424   -1.8498803   0.77234073 
     900          1.8    1.3849291    2.0767782   -3.9268234   -1.8500452   0.76181353 
     950          1.9    1.3750761     2.062003   -3.9124592   -1.8504562    0.8169359 
    1000            2    1.3790625    2.0679808   -3.9181758   -1.8501949   0.82977763 
    1050          2.1    1.3721919     2.057678   -3.9076123   -1.8499342   0.86562379 
    1100          2.2    1.3928184    2.0886086   -3.9384684   -1.8498599   0.75971167 
    1150          2.3    1.3716163    2.0568148   -3.9068054   -1.8499906   0.87291176 
    1200          2.4    1.3786529    2.0673667    -3.917236   -1.8498693   0.83172775 
    1250          2.5    1.3917011    2.0869331   -3.9368691    -1.849936   0.73417121 
    1300          2.6    1.3798705    2.0691925   -3.9186349   -1.8494425   0.78371575 
    1350          2.7    1.3634648    2.0445913   -3.8942334   -1.8496422   0.87120559 
    1400          2.8    1.3749287    2.0617819   -3.9112936   -1.8495117   0.80608922 
    1450          2.9    1.3951481    2.0921021   -3.9414221     -1.84932   0.74245665 
    1500            3    1.3890348    2.0829348   -3.9328231   -1.8498883   0.79114966 
    1550          3.1    1.3797999    2.0690865   -3.9191536    -1.850067   0.87227817 
    1600          3.2    1.3636878    2.0449257   -3.8949378   -1.8500121   0.91354496 
    1650          3.3    1.3756381    2.0628458   -3.9125486   -1.8497028   0.84170427 
    1700          3.4    1.3708422     2.055654    -3.905486    -1.849832   0.89754179 
    1750          3.5    1.3741604    2.0606299   -3.9105639    -1.849934    0.8520214 
    1800          3.6    1.3774845    2.0656145   -3.9153117   -1.8496971   0.83715533 
    1850          3.7    1.3750299    2.0619338   -3.9112888    -1.849355   0.84426896 
    1900          3.8    1.3602998    2.0398451   -3.8891275   -1.8492824   0.86658972 
    1950          3.9    1.3858228    2.0781183   -3.9274369   -1.8493187   0.73038999 
    2000            4    1.3799289      2.06928   -3.9186482   -1.8493681   0.73832611 
    2050          4.1    1.3795857    2.0687655   -3.9181643   -1.8493988    0.7340327 
    2100          4.2    1.3586427    2.0373602   -3.8869268   -1.8495666   0.87190762 
    2150          4.3    1.3877504    2.0810089   -3.9304688   -1.8494599   0.74187148 
    2200          4.4    1.3840405    2.0754457   -3.9245677    -1.849122   0.70903703 
    2250          4.5    1.3855962    2.0777785   -3.9272259   -1.8494473   0.71125061 
    2300          4.6    1.3735288    2.0596827   -3.9088548   -1.8491721   0.81572678 
    2350          4.7    1.3717945     2.057082    -3.906555    -1.849473   0.83950895 
    2400          4.8    1.3721739     2.057651   -3.9072221   -1.8495711   0.86010857 
    2450          4.9    1.3544141    2.0310192   -3.8805768   -1.8495576   0.93802159 
    2500            5    1.3721455    2.0576085   -3.9073233   -1.8497148   0.81702555 
Loop time of 8.50613 on 1 procs for 2500 steps with 3375 atoms

Performance: 50786.886 tau/day, 293.906 timesteps/s
99.7% CPU use with 1 MPI tasks x no OpenMP threads

MPI task timing breakdown:
Section |  min time  |  avg time  |  max time  |%varavg| %total
---------------------------------------------------------------
Pair    | 7.4593     | 7.4593     | 7.4593     |   0.0 | 87.69
Neigh   | 0.75176    | 0.75176    | 0.75176    |   0.0 |  8.84
Comm    | 0.10303    | 0.10303    | 0.10303    |   0.0 |  1.21
Output  | 0.00081696 | 0.00081696 | 0.00081696 |   0.0 |  0.01
Modify  | 0.16631    | 0.16631    | 0.16631    |   0.0 |  1.96
Other   |            | 0.02487    |            |       |  0.29

Nlocal:        3375.00 ave        3375 max        3375 min
Histogram: 1 0 0 0 0 0 0 0 0 0
Nghost:        5374.00 ave        5374 max        5374 min
Histogram: 1 0 0 0 0 0 0 0 0 0
Neighs:        153693.0 ave      153693 max      153693 min
Histogram: 1 0 0 0 0 0 0 0 0 0

Total # of neighbors = 153693
Ave neighs/atom = 45.538667
Neighbor list builds = 125
Dangerous builds not checked
variable        diff_accum equal ${diff_accum}+${diff_integ}/(3*${loop_iterations})
variable        diff_accum equal 0+${diff_integ}/(3*${loop_iterations})
variable        diff_accum equal 0+0.605340331619699/(3*${loop_iterations})
variable        diff_accum equal 0+0.605340331619699/(3*25)
unfix           fixVACF
write_data      liquid.T${temp}.rho${rho}.data
write_data      liquid.T1.4.rho${rho}.data
write_data      liquid.T1.4.rho0.61.data
System init for write_data ...
print           "" append log.vacf.T${temp}.rho${rho}.txt screen no
print           "" append log.vacf.T1.4.rho${rho}.txt screen no
print           "" append log.vacf.T1.4.rho0.61.txt screen no

next            loop_counter
jump            SELF loop
clear

pair_style	lj/smooth 2.5 3.0

read_data       liquid.T${temp}.rho${rho}.data
read_data       liquid.T1.4.rho${rho}.data
read_data       liquid.T1.4.rho0.61.data
Reading data file ...
  orthogonal box = (0.0000000 0.0000000 0.0000000) to (17.686748 17.686748 17.686748)
  1 by 1 by 1 MPI processor grid
  reading atoms ...
  3375 atoms
  reading velocities ...
  3375 velocities
  read_data CPU = 0.009 seconds

neighbor	0.3 bin
neigh_modify	every 20 delay 0 check no

fix		1 all nve
timestep        0.002
thermo		50

reset_timestep  0
compute         myVACF all vacf

fix             fixVACF all vector 1 c_myVACF[4]
variable        diff_integ equal dt*trap(f_fixVACF)
variable        curVACF equal c_myVACF[4]

variable        step0 equal step
variable        step0 equal $(v_step0)
variable        step0 equal 0
variable        dtime equal (step-${step0})*dt
variable        dtime equal (step-0)*dt
fix             print_vacf all print 2 "${dtime} ${curVACF} ${diff_integ}" append log.vacf.T${temp}.rho${rho}.txt screen no
fix             print_vacf all print 2 "${dtime} ${curVACF} ${diff_integ}" append log.vacf.T1.4.rho${rho}.txt screen no
fix             print_vacf all print 2 "${dtime} ${curVACF} ${diff_integ}" append log.vacf.T1.4.rho0.61.txt screen no
thermo_style	custom step time temp ke pe etotal press

run             ${loop_length}
run             2500
Neighbor list info ...
  update every 20 steps, delay 0 steps, check no
  max neighbors/atom: 2000, page size: 100000
  master list distance cutoff = 3.3
  ghost atom cutoff = 3.3
  binsize = 1.65, bins = 11 11 11
  1 neighbor lists, perpetual/occasional/extra = 1 0 0
  (1) pair lj/smooth, perpetual
      attributes: half, newton on
      pair build: half/bin/atomonly/newton
      stencil: half/bin/3d
      bin: standard
Per MPI rank memory allocation (min/avg/max) = 3.549 | 3.549 | 3.549 Mbytes
Step Time Temp KinEng PotEng TotEng Press 
       0            0    1.3721455    2.0576085   -3.9073233   -1.8497148   0.81702555 
      50          0.1    1.3789119     2.067755   -3.9172551   -1.8495001   0.79719564 
     100          0.2    1.3774162    2.0655121   -3.9152379   -1.8497259   0.82898019 
     150          0.3    1.3782119    2.0667053   -3.9164657   -1.8497604   0.81684537 
     200          0.4    1.3859872    2.0783648   -3.9280733   -1.8497085   0.75459746 
     250          0.5    1.3636776    2.0449103   -3.8947281   -1.8498178   0.85133678 
     300          0.6    1.3854859    2.0776131   -3.9278128   -1.8501996   0.77973581 
     350          0.7    1.3793102    2.0683523   -3.9181173    -1.849765    0.8134702 
     400          0.8    1.3905424    2.0851955   -3.9347048   -1.8495092   0.74808873 
     450          0.9    1.3824013    2.0729876   -3.9226166   -1.8496291   0.76036008 
     500            1     1.381665    2.0718834    -3.921464   -1.8495806   0.77135064 
     550          1.1    1.3840802    2.0755052    -3.925234   -1.8497289   0.79795748 
     600          1.2    1.3668785    2.0497102    -3.899453   -1.8497428   0.87766746 
     650          1.3    1.3743041    2.0608453   -3.9108372   -1.8499919   0.84262998 
     700          1.4      1.35962    2.0388258   -3.8889941   -1.8501683   0.92705042 
     750          1.5    1.3728458    2.0586585   -3.9086789   -1.8500204   0.92830658 
     800          1.6    1.3882579    2.0817698   -3.9318874   -1.8501176   0.81312023 
     850          1.7    1.3907895    2.0855662   -3.9354696   -1.8499035   0.77402822 
     900          1.8    1.3883065    2.0818428   -3.9319437    -1.850101   0.76918442 
     950          1.9    1.3599093    2.0392595    -3.889337   -1.8500775   0.92378309 
    1000            2    1.3696441    2.0538575   -3.9036602   -1.8498028   0.87531225 
    1050          2.1    1.3782342    2.0667387   -3.9164931   -1.8497544    0.8111919 
    1100          2.2    1.3608054    2.0406033   -3.8897828   -1.8491795   0.90864437 
    1150          2.3    1.3795847    2.0687639   -3.9185994   -1.8498355    0.8407688 
    1200          2.4    1.3617717    2.0420523   -3.8918163   -1.8497639    0.9126049 
    1250          2.5    1.3779999    2.0663874    -3.916143   -1.8497555   0.79059283 
    1300          2.6    1.3703052    2.0548488   -3.9045068    -1.849658   0.80903226 
    1350          2.7    1.3728133    2.0586099   -3.9082551   -1.8496452   0.80636653 
    1400          2.8    1.3838012    2.0750868   -3.9248867      -1.8498   0.76589437 
    1450          2.9     1.346864    2.0196974   -3.8689776   -1.8492802   0.92347658 
    1500            3    1.3752498    2.0622635   -3.9118319   -1.8495683   0.78136301 
    1550          3.1    1.3781283    2.0665799    -3.916295   -1.8497151   0.76149495 
    1600          3.2    1.3630666    2.0439941   -3.8943918   -1.8503977   0.87983606 
    1650          3.3    1.3818334     2.072136   -3.9224833   -1.8503473   0.80066027 
    1700          3.4     1.373377    2.0594551   -3.9096234   -1.8501683   0.83399804 
    1750          3.5     1.362591    2.0432809   -3.8932613   -1.8499804   0.88211711 
    1800          3.6    1.3673875    2.0504736   -3.9003476    -1.849874   0.86156845 
    1850          3.7    1.3933024    2.0893344   -3.9396284    -1.850294    0.7636641 
    1900          3.8    1.3605538    2.0402259   -3.8902699   -1.8500439   0.91610992 
    1950          3.9     1.375816    2.0631126   -3.9131402   -1.8500276   0.85909668 
    2000            4    1.3799887    2.0693697    -3.919229   -1.8498593   0.85119565 
    2050          4.1     1.383889    2.0752184   -3.9251812   -1.8499628     0.837036 
    2100          4.2     1.376638    2.0643451    -3.914431   -1.8500859    0.8612593 
    2150          4.3    1.3743917    2.0609768   -3.9109244   -1.8499476   0.85075198 
    2200          4.4    1.3714961    2.0566346   -3.9064957   -1.8498611    0.8424438 
    2250          4.5     1.373684    2.0599155   -3.9090931   -1.8491775    0.8044029 
    2300          4.6    1.3691747    2.0531535   -3.9021641   -1.8490106   0.81297867 
    2350          4.7    1.3665754    2.0492558   -3.8985759   -1.8493201   0.85511864 
    2400          4.8    1.3775916    2.0657751   -3.9153744   -1.8495992   0.79405188 
    2450          4.9    1.3659152    2.0482658   -3.8980544   -1.8497886   0.82913967 
    2500            5    1.3676511    2.0508687   -3.9006354   -1.8497666   0.84314731 
Loop time of 8.68309 on 1 procs for 2500 steps with 3375 atoms

Performance: 49751.894 tau/day, 287.916 timesteps/s
99.7% CPU use with 1 MPI tasks x no OpenMP threads

MPI task timing breakdown:
Section |  min time  |  avg time  |  max time  |%varavg| %total
---------------------------------------------------------------
Pair    | 7.6379     | 7.6379     | 7.6379     |   0.0 | 87.96
Neigh   | 0.75143    | 0.75143    | 0.75143    |   0.0 |  8.65
Comm    | 0.1024     | 0.1024     | 0.1024     |   0.0 |  1.18
Output  | 0.000814   | 0.000814   | 0.000814   |   0.0 |  0.01
Modify  | 0.16584    | 0.16584    | 0.16584    |   0.0 |  1.91
Other   |            | 0.02475    |            |       |  0.29

Nlocal:        3375.00 ave        3375 max        3375 min
Histogram: 1 0 0 0 0 0 0 0 0 0
Nghost:        5370.00 ave        5370 max        5370 min
Histogram: 1 0 0 0 0 0 0 0 0 0
Neighs:        153675.0 ave      153675 max      153675 min
Histogram: 1 0 0 0 0 0 0 0 0 0

Total # of neighbors = 153675
Ave neighs/atom = 45.533333
Neighbor list builds = 125
Dangerous builds not checked
variable        diff_accum equal ${diff_accum}+${diff_integ}/(3*${loop_iterations})
variable        diff_accum equal 0.00807120442159599+${diff_integ}/(3*${loop_iterations})
variable        diff_accum equal 0.00807120442159599+0.638880438548861/(3*${loop_iterations})
variable        diff_accum equal 0.00807120442159599+0.638880438548861/(3*25)
unfix           fixVACF
write_data      liquid.T${temp}.rho${rho}.data
write_data      liquid.T1.4.rho${rho}.data
write_data      liquid.T1.4.rho0.61.data
System init for write_data ...
print           "" append log.vacf.T${temp}.rho${rho}.txt screen no
print           "" append log.vacf.T1.4.rho${rho}.txt screen no
print           "" append log.vacf.T1.4.rho0.61.txt screen no

next            loop_counter
jump            SELF loop
clear

pair_style	lj/smooth 2.5 3.0

read_data       liquid.T${temp}.rho${rho}.data
read_data       liquid.T1.4.rho${rho}.data
read_data       liquid.T1.4.rho0.61.data
Reading data file ...
  orthogonal box = (0.0000000 0.0000000 0.0000000) to (17.686748 17.686748 17.686748)
  1 by 1 by 1 MPI processor grid
  reading atoms ...
  3375 atoms
  reading velocities ...
  3375 velocities
  read_data CPU = 0.009 seconds

neighbor	0.3 bin
neigh_modify	every 20 delay 0 check no

fix		1 all nve
timestep        0.002
thermo		50

reset_timestep  0
compute         myVACF all vacf

fix             fixVACF all vector 1 c_myVACF[4]
variable        diff_integ equal dt*trap(f_fixVACF)
variable        curVACF equal c_myVACF[4]

variable        step0 equal step
variable        step0 equal $(v_step0)
variable        step0 equal 0
variable        dtime equal (step-${step0})*dt
variable        dtime equal (step-0)*dt
fix             print_vacf all print 2 "${dtime} ${curVACF} ${diff_integ}" append log.vacf.T${temp}.rho${rho}.txt screen no
fix             print_vacf all print 2 "${dtime} ${curVACF} ${diff_integ}" append log.vacf.T1.4.rho${rho}.txt screen no
fix             print_vacf all print 2 "${dtime} ${curVACF} ${diff_integ}" append log.vacf.T1.4.rho0.61.txt screen no
thermo_style	custom step time temp ke pe etotal press

run             ${loop_length}
run             2500
Neighbor list info ...
  update every 20 steps, delay 0 steps, check no
  max neighbors/atom: 2000, page size: 100000
  master list distance cutoff = 3.3
  ghost atom cutoff = 3.3
  binsize = 1.65, bins = 11 11 11
  1 neighbor lists, perpetual/occasional/extra = 1 0 0
  (1) pair lj/smooth, perpetual
      attributes: half, newton on
      pair build: half/bin/atomonly/newton
      stencil: half/bin/3d
      bin: standard
Per MPI rank memory allocation (min/avg/max) = 3.545 | 3.545 | 3.545 Mbytes
Step Time Temp KinEng PotEng TotEng Press 
       0            0    1.3676511    2.0508687   -3.9006354   -1.8497666   0.84314731 
      50          0.1    1.3659746    2.0483549   -3.8978288   -1.8494739   0.84332811 
     100          0.2    1.3729721    2.0588479   -3.9089192   -1.8500713   0.81937972 
     150          0.3    1.3427237    2.0134888   -3.8634069   -1.8499181   0.97211463 
     200          0.4    1.3849378    2.0767912   -3.9267945   -1.8500034   0.74070756 
     250          0.5    1.3690785    2.0530093   -3.9027068   -1.8496976   0.81817369 
     300          0.6    1.3741955    2.0606826   -3.9101809   -1.8494984   0.86091078 
     350          0.7    1.3798804    2.0692073   -3.9187445   -1.8495372    0.8669698 
     400          0.8    1.3772372    2.0652437   -3.9148173   -1.8495736   0.85466015 
     450          0.9    1.3643254    2.0458817    -3.895638   -1.8497563   0.90003231 
     500            1    1.3838578    2.0751717   -3.9247759   -1.8496042   0.81845815 
     550          1.1    1.3751101    2.0620541   -3.9120609   -1.8500068   0.85369228 
     600          1.2    1.3958071    2.0930903   -3.9424356   -1.8493453   0.75963142 
     650          1.3    1.3712388    2.0562488   -3.9061063   -1.8498574   0.86243366 
     700          1.4    1.3855757    2.0777478   -3.9275687   -1.8498209   0.80212453 
     750          1.5    1.3563321    2.0338953   -3.8836051   -1.8497098   0.93579601 
     800          1.6    1.3685008     2.052143   -3.9014823   -1.8493393   0.85372788 
     850          1.7     1.379036    2.0679412   -3.9171386   -1.8491974   0.80068285 
     900          1.8     1.388872    2.0826907    -3.931939   -1.8492483    0.7326923 
     950          1.9     1.365826    2.0481319   -3.8974614   -1.8493294   0.85580573 
    1000            2    1.3896198     2.083812   -3.9331211    -1.849309   0.72740122 
    1050          2.1    1.3582019    2.0366993   -3.8866413   -1.8499421    0.8779113 
    1100          2.2    1.3916595    2.0868707   -3.9366697   -1.8497989   0.73290099 
    1150          2.3    1.3867658    2.0795323   -3.9295324   -1.8500001    0.7709975 
    1200          2.4    1.3589744    2.0378576   -3.8879313   -1.8500737   0.90533493 
    1250          2.5    1.3783398    2.0668971   -3.9168879   -1.8499909   0.79119441 
    1300          2.6    1.3729505    2.0588155   -3.9088389   -1.8500234   0.81978242 
    1350          2.7    1.3806511     2.070363   -3.9201458   -1.8497828   0.81404963 
    1400          2.8    1.3739689    2.0603427   -3.9100686   -1.8497259   0.87693996 
    1450          2.9    1.3672988    2.0503405   -3.9002256   -1.8498852   0.91210746 
    1500            3    1.3896104    2.0837979    -3.933572    -1.849774   0.79360622 
    1550          3.1    1.3882834    2.0818081   -3.9316586   -1.8498505   0.81821954 
    1600          3.2    1.3823195    2.0728649   -3.9224195   -1.8495545   0.84826439 
    1650          3.3    1.3836402    2.0748453   -3.9247068   -1.8498614   0.82654231 
    1700          3.4     1.374595    2.0612816   -3.9108963   -1.8496147   0.83091744 
    1750          3.5    1.3787714    2.0675443   -3.9175888   -1.8500445   0.83904414 
    1800          3.6    1.3879132     2.081253    -3.931145    -1.849892   0.82370798 
    1850          3.7    1.3962198    2.0937091   -3.9437418   -1.8500327   0.79884945 
    1900          3.8    1.3862241      2.07872   -3.9290997   -1.8503797   0.82146039 
    1950          3.9    1.3716915    2.0569275   -3.9073662   -1.8504387   0.91324984 
    2000            4     1.378491    2.0671238   -3.9177159   -1.8505921   0.86651112 
    2050          4.1    1.3768071    2.0645988    -3.914999   -1.8504002   0.80704517 
    2100          4.2    1.3709488     2.055814   -3.9056668   -1.8498528   0.85510555 
    2150          4.3    1.3686553    2.0523746   -3.9022845   -1.8499099   0.90655963 
    2200          4.4     1.371981    2.0573617   -3.9071574   -1.8497957   0.85447504 
    2250          4.5    1.3672969    2.0503377   -3.9000342   -1.8496965   0.85701759 
    2300          4.6    1.3763497    2.0639129   -3.9135643   -1.8496514   0.79537597 
    2350          4.7    1.3735981    2.0597867   -3.9093586    -1.849572   0.81086296 
    2400          4.8     1.367385    2.0504697   -3.9000402   -1.8495705   0.86405226 
    2450          4.9    1.3658204    2.0481236   -3.8979993   -1.8498757   0.89020733 
    2500            5    1.3755194    2.0626678    -3.912328   -1.8496603   0.84929973 
Loop time of 8.47066 on 1 procs for 2500 steps with 3375 atoms

Performance: 50999.541 tau/day, 295.136 timesteps/s
99.8% CPU use with 1 MPI tasks x no OpenMP threads

MPI task timing breakdown:
Section |  min time  |  avg time  |  max time  |%varavg| %total
---------------------------------------------------------------
Pair    | 7.4302     | 7.4302     | 7.4302     |   0.0 | 87.72
Neigh   | 0.74904    | 0.74904    | 0.74904    |   0.0 |  8.84
Comm    | 0.1016     | 0.1016     | 0.1016     |   0.0 |  1.20
Output  | 0.00080779 | 0.00080779 | 0.00080779 |   0.0 |  0.01
Modify  | 0.16372    | 0.16372    | 0.16372    |   0.0 |  1.93
Other   |            | 0.02528    |            |       |  0.30

Nlocal:        3375.00 ave        3375 max        3375 min
Histogram: 1 0 0 0 0 0 0 0 0 0
Nghost:        5297.00 ave        5297 max        5297 min
Histogram: 1 0 0 0 0 0 0 0 0 0
Neighs:        154016.0 ave      154016 max      154016 min
Histogram: 1 0 0 0 0 0 0 0 0 0

Total # of neighbors = 154016
Ave neighs/atom = 45.634370
Neighbor list builds = 125
Dangerous builds not checked
variable        diff_accum equal ${diff_accum}+${diff_integ}/(3*${loop_iterations})
variable        diff_accum equal 0.0165896102689141+${diff_integ}/(3*${loop_iterations})
variable        diff_accum equal 0.0165896102689141+0.68632917487724/(3*${loop_iterations})
variable        diff_accum equal 0.0165896102689141+0.68632917487724/(3*25)
unfix           fixVACF
write_data      liquid.T${temp}.rho${rho}.data
write_data      liquid.T1.4.rho${rho}.data
write_data      liquid.T1.4.rho0.61.data
System init for write_data ...
print           "" append log.vacf.T${temp}.rho${rho}.txt screen no
print           "" append log.vacf.T1.4.rho${rho}.txt screen no
print           "" append log.vacf.T1.4.rho0.61.txt screen no

next            loop_counter
jump            SELF loop
clear

pair_style	lj/smooth 2.5 3.0

read_data       liquid.T${temp}.rho${rho}.data
read_data       liquid.T1.4.rho${rho}.data
read_data       liquid.T1.4.rho0.61.data
Reading data file ...
  orthogonal box = (0.0000000 0.0000000 0.0000000) to (17.686748 17.686748 17.686748)
  1 by 1 by 1 MPI processor grid
  reading atoms ...
  3375 atoms
  reading velocities ...
  3375 velocities
  read_data CPU = 0.009 seconds

neighbor	0.3 bin
neigh_modify	every 20 delay 0 check no

fix		1 all nve
timestep        0.002
thermo		50

reset_timestep  0
compute         myVACF all vacf

fix             fixVACF all vector 1 c_myVACF[4]
variable        diff_integ equal dt*trap(f_fixVACF)
variable        curVACF equal c_myVACF[4]

variable        step0 equal step
variable        step0 equal $(v_step0)
variable        step0 equal 0
variable        dtime equal (step-${step0})*dt
variable        dtime equal (step-0)*dt
fix             print_vacf all print 2 "${dtime} ${curVACF} ${diff_integ}" append log.vacf.T${temp}.rho${rho}.txt screen no
fix             print_vacf all print 2 "${dtime} ${curVACF} ${diff_integ}" append log.vacf.T1.4.rho${rho}.txt screen no
fix             print_vacf all print 2 "${dtime} ${curVACF} ${diff_integ}" append log.vacf.T1.4.rho0.61.txt screen no
thermo_style	custom step time temp ke pe etotal press

run             ${loop_length}
run             2500
Neighbor list info ...
  update every 20 steps, delay 0 steps, check no
  max neighbors/atom: 2000, page size: 100000
  master list distance cutoff = 3.3
  ghost atom cutoff = 3.3
  binsize = 1.65, bins = 11 11 11
  1 neighbor lists, perpetual/occasional/extra = 1 0 0
  (1) pair lj/smooth, perpetual
      attributes: half, newton on
      pair build: half/bin/atomonly/newton
      stencil: half/bin/3d
      bin: standard
Per MPI rank memory allocation (min/avg/max) = 3.543 | 3.543 | 3.543 Mbytes
Step Time Temp KinEng PotEng TotEng Press 
       0            0    1.3755194    2.0626678    -3.912328   -1.8496603   0.84929973 
      50          0.1    1.3692569    2.0532768    -3.902969   -1.8496922   0.89763664 
     100          0.2    1.3721514    2.0576173   -3.9073872   -1.8497699   0.89182919 
     150          0.3    1.3798594    2.0691758   -3.9190887   -1.8499129    0.8549427 
     200          0.4    1.3768967     2.064733   -3.9146057   -1.8498727   0.84119341 
     250          0.5    1.3643318    2.0458913   -3.8961887   -1.8502973   0.91242756 
     300          0.6    1.3627197    2.0434739   -3.8936073   -1.8501334    0.9209061 
     350          0.7    1.3773849    2.0654651   -3.9155502   -1.8500851   0.82750537 
     400          0.8    1.3674596    2.0505817   -3.9003748   -1.8497931   0.86620308 
     450          0.9    1.3609984    2.0408927   -3.8912844   -1.8503917   0.86101397 
     500            1    1.3767985    2.0645859   -3.9146771   -1.8500912   0.78694841 
     550          1.1    1.3564841    2.0341232   -3.8837935   -1.8496702   0.91217751 
     600          1.2    1.3651876    2.0471747   -3.8969369   -1.8497621   0.90553533 
     650          1.3    1.3666327    2.0493416   -3.8991251   -1.8497835    0.8590073 
     700          1.4      1.38116    2.0711262   -3.9209955   -1.8498693   0.76414501 
     750          1.5    1.3741479    2.0606112   -3.9102707   -1.8496595   0.79124333 
     800          1.6    1.3568534    2.0346771   -3.8844013   -1.8497242   0.86891943 
     850          1.7    1.3669716    2.0498498   -3.8999761   -1.8501263   0.81725919 
     900          1.8    1.3953683    2.0924322   -3.9424161   -1.8499839   0.72194359 
     950          1.9    1.3758087    2.0631016   -3.9128501   -1.8497485   0.83145729 
    1000            2    1.3604259    2.0400342   -3.8897497   -1.8497156   0.89454416 
    1050          2.1     1.370926    2.0557797   -3.9051418   -1.8493621   0.85095831 
    1100          2.2    1.3465134    2.0191717   -3.8687404   -1.8495688   0.99412876 
    1150          2.3    1.3817053    2.0719438    -3.921542   -1.8495981   0.80154132 
    1200          2.4    1.3808237    2.0706219    -3.920497   -1.8498751   0.81417448 
    1250          2.5    1.3544492    2.0310719    -3.880973   -1.8499012   0.95801301 
    1300          2.6     1.361543    2.0417094   -3.8914924    -1.849783   0.93464902 
    1350          2.7    1.3652504    2.0472688   -3.8969124   -1.8496437    0.9155805 
    1400          2.8    1.3709555     2.055824   -3.9050458   -1.8492218   0.85989398 
    1450          2.9    1.3588768    2.0377112   -3.8871109   -1.8493997   0.91711056 
    1500            3    1.3737261    2.0599786   -3.9092484   -1.8492699   0.84108187 
    1550          3.1    1.3709552    2.0558235   -3.9051617   -1.8493382   0.82737497 
    1600          3.2    1.3644767    2.0461086   -3.8956748   -1.8495662   0.84063443 
    1650          3.3    1.3707804    2.0555614   -3.9051839   -1.8496225   0.82688431 
    1700          3.4    1.3726955    2.0584331   -3.9083379   -1.8499048   0.80071492 
    1750          3.5    1.3750761     2.062003   -3.9115955   -1.8495925   0.78736522 
    1800          3.6    1.3830514    2.0739624   -3.9236388   -1.8496764   0.77093501 
    1850          3.7    1.3827043    2.0734419   -3.9231396   -1.8496978   0.78587484 
    1900          3.8    1.3751777    2.0621553   -3.9119351   -1.8497798   0.82852323 
    1950          3.9    1.3846647    2.0763816   -3.9264118   -1.8500302    0.7836559 
    2000            4    1.3625012    2.0431462   -3.8927618   -1.8496156   0.87445646 
    2050          4.1    1.3748004    2.0615895   -3.9113219   -1.8497323   0.79029558 
    2100          4.2    1.3763858     2.063967   -3.9135569   -1.8495899   0.75587642 
    2150          4.3    1.3630277    2.0439357   -3.8938795   -1.8499438   0.81664659 
    2200          4.4    1.3762284    2.0637309   -3.9136211   -1.8498902   0.75038015 
    2250          4.5    1.3527914    2.0285859   -3.8780367   -1.8494508   0.89206863 
    2300          4.6    1.3726764    2.0584045   -3.9077211   -1.8493166   0.80222875 
    2350          4.7    1.3842564    2.0757694   -3.9251049   -1.8493355   0.80698501 
    2400          4.8    1.3794302    2.0685322    -3.918114   -1.8495817   0.83214587 
    2450          4.9    1.3740041    2.0603955   -3.9099536   -1.8495581   0.87987044 
    2500            5     1.378144    2.0666035   -3.9163131   -1.8497096    0.8539708 
Loop time of 8.49183 on 1 procs for 2500 steps with 3375 atoms

Performance: 50872.427 tau/day, 294.401 timesteps/s
99.8% CPU use with 1 MPI tasks x no OpenMP threads

MPI task timing breakdown:
Section |  min time  |  avg time  |  max time  |%varavg| %total
---------------------------------------------------------------
Pair    | 7.4437     | 7.4437     | 7.4437     |   0.0 | 87.66
Neigh   | 0.7558     | 0.7558     | 0.7558     |   0.0 |  8.90
Comm    | 0.10265    | 0.10265    | 0.10265    |   0.0 |  1.21
Output  | 0.0008312  | 0.0008312  | 0.0008312  |   0.0 |  0.01
Modify  | 0.16386    | 0.16386    | 0.16386    |   0.0 |  1.93
Other   |            | 0.02498    |            |       |  0.29

Nlocal:        3375.00 ave        3375 max        3375 min
Histogram: 1 0 0 0 0 0 0 0 0 0
Nghost:        5329.00 ave        5329 max        5329 min
Histogram: 1 0 0 0 0 0 0 0 0 0
Neighs:        153821.0 ave      153821 max      153821 min
Histogram: 1 0 0 0 0 0 0 0 0 0

Total # of neighbors = 153821
Ave neighs/atom = 45.576593
Neighbor list builds = 125
Dangerous builds not checked
variable        diff_accum equal ${diff_accum}+${diff_integ}/(3*${loop_iterations})
variable        diff_accum equal 0.025740665933944+${diff_integ}/(3*${loop_iterations})
variable        diff_accum equal 0.025740665933944+0.649197365215671/(3*${loop_iterations})
variable        diff_accum equal 0.025740665933944+0.649197365215671/(3*25)
unfix           fixVACF
write_data      liquid.T${temp}.rho${rho}.data
write_data      liquid.T1.4.rho${rho}.data
write_data      liquid.T1.4.rho0.61.data
System init for write_data ...
print           "" append log.vacf.T${temp}.rho${rho}.txt screen no
print           "" append log.vacf.T1.4.rho${rho}.txt screen no
print           "" append log.vacf.T1.4.rho0.61.txt screen no

next            loop_counter
jump            SELF loop
clear

pair_style	lj/smooth 2.5 3.0

read_data       liquid.T${temp}.rho${rho}.data
read_data       liquid.T1.4.rho${rho}.data
read_data       liquid.T1.4.rho0.61.data
Reading data file ...
  orthogonal box = (0.0000000 0.0000000 0.0000000) to (17.686748 17.686748 17.686748)
  1 by 1 by 1 MPI processor grid
  reading atoms ...
  3375 atoms
  reading velocities ...
  3375 velocities
  read_data CPU = 0.009 seconds

neighbor	0.3 bin
neigh_modify	every 20 delay 0 check no

fix		1 all nve
timestep        0.002
thermo		50

reset_timestep  0
compute         myVACF all vacf

fix             fixVACF all vector 1 c_myVACF[4]
variable        diff_integ equal dt*trap(f_fixVACF)
variable        curVACF equal c_myVACF[4]

variable        step0 equal step
variable        step0 equal $(v_step0)
variable        step0 equal 0
variable        dtime equal (step-${step0})*dt
variable        dtime equal (step-0)*dt
fix             print_vacf all print 2 "${dtime} ${curVACF} ${diff_integ}" append log.vacf.T${temp}.rho${rho}.txt screen no
fix             print_vacf all print 2 "${dtime} ${curVACF} ${diff_integ}" append log.vacf.T1.4.rho${rho}.txt screen no
fix             print_vacf all print 2 "${dtime} ${curVACF} ${diff_integ}" append log.vacf.T1.4.rho0.61.txt screen no
thermo_style	custom step time temp ke pe etotal press

run             ${loop_length}
run             2500
Neighbor list info ...
  update every 20 steps, delay 0 steps, check no
  max neighbors/atom: 2000, page size: 100000
  master list distance cutoff = 3.3
  ghost atom cutoff = 3.3
  binsize = 1.65, bins = 11 11 11
  1 neighbor lists, perpetual/occasional/extra = 1 0 0
  (1) pair lj/smooth, perpetual
      attributes: half, newton on
      pair build: half/bin/atomonly/newton
      stencil: half/bin/3d
      bin: standard
Per MPI rank memory allocation (min/avg/max) = 3.545 | 3.545 | 3.545 Mbytes
Step Time Temp KinEng PotEng TotEng Press 
       0            0     1.378144    2.0666035   -3.9163131   -1.8497096    0.8539708 
      50          0.1    1.3792765    2.0683017   -3.9180125   -1.8497108   0.81898408 
     100          0.2    1.3773042    2.0653442   -3.9153096   -1.8499654   0.83349802 
     150          0.3    1.3766359    2.0643421   -3.9144227   -1.8500806    0.8530135 
     200          0.4    1.3731425    2.0591034   -3.9095002   -1.8503968   0.83119237 
     250          0.5    1.3742309    2.0607356   -3.9111609   -1.8504253   0.84476447 
     300          0.6    1.3669298    2.0497872   -3.8996797   -1.8498925   0.91528255 
     350          0.7    1.3715047    2.0566475   -3.9071477   -1.8505002   0.86783506 
     400          0.8    1.3732081    2.0592018   -3.9094614   -1.8502596   0.85391002 
     450          0.9    1.3696218     2.053824   -3.9040314   -1.8502074   0.88874996 
     500            1    1.3669349    2.0497948   -3.8999355   -1.8501407    0.9085692 
     550          1.1    1.3712073    2.0562016   -3.9060885   -1.8498869   0.85861983 
     600          1.2    1.3737689    2.0600428   -3.9100392   -1.8499964   0.84933328 
     650          1.3    1.3658385    2.0481507   -3.8984148    -1.850264   0.89374468 
     700          1.4    1.3711209     2.056072   -3.9064353   -1.8503633   0.90848529 
     750          1.5    1.3887713    2.0825397   -3.9326972   -1.8501575   0.81937972 
     800          1.6    1.3599505    2.0393213   -3.8895649   -1.8502436   0.93915827 
     850          1.7    1.3769252    2.0647758   -3.9144706   -1.8496948   0.86610907 
     900          1.8    1.3646988    2.0464416   -3.8960157    -1.849574   0.87631212 
     950          1.9    1.3756458    2.0628573   -3.9126871   -1.8498297   0.79758433 
    1000            2    1.3675061    2.0506514   -3.9005736   -1.8499223   0.84643731 
    1050          2.1    1.3726514     2.058367   -3.9081945   -1.8498275   0.82050514 
    1100          2.2    1.3480552    2.0214836   -3.8710548   -1.8495712   0.96101702 
    1150          2.3    1.3822456     2.072754   -3.9222417   -1.8494877   0.79362357 
    1200          2.4    1.3849384    2.0767921   -3.9264898   -1.8496977    0.7659276 
    1250          2.5    1.3673693    2.0504462   -3.8999023   -1.8494561    0.8467377 
    1300          2.6    1.3802435    2.0697518   -3.9189835   -1.8492317   0.75798037 
    1350          2.7    1.3641031    2.0455484   -3.8952916   -1.8497432   0.86827972 
    1400          2.8    1.3694606    2.0535822   -3.9036837   -1.8501016   0.84312767 
    1450          2.9    1.3875217    2.0806659   -3.9305129   -1.8498469   0.77664923 
    1500            3    1.3853735    2.0774445   -3.9271298   -1.8496853   0.76177216 
    1550          3.1    1.3728915    2.0587271    -3.908671   -1.8499438   0.82452262 
    1600          3.2    1.3730933    2.0590296   -3.9090778   -1.8500482     0.858355 
    1650          3.3    1.3660693    2.0484968   -3.8985538    -1.850057   0.88721689 
    1700          3.4    1.3792311    2.0682337   -3.9184319   -1.8501983   0.79888315 
    1750          3.5    1.3811969    2.0711815   -3.9209809   -1.8497994   0.77329648 
    1800          3.6    1.3784141    2.0670085   -3.9168544   -1.8498459   0.77022223 
    1850          3.7    1.3659639    2.0483388    -3.898507   -1.8501682   0.82011177 
    1900          3.8    1.3621335    2.0425949   -3.8925776   -1.8499827    0.8695712 
    1950          3.9     1.380955    2.0708187   -3.9206432   -1.8498245   0.77221388 
    2000            4    1.3716882    2.0569227   -3.9068066   -1.8498839   0.80758935 
    2050          4.1    1.3852922    2.0773226   -3.9273794   -1.8500568   0.77416108 
    2100          4.2    1.3611209    2.0410764   -3.8910889   -1.8500125   0.88976705 
    2150          4.3    1.3773931    2.0654775   -3.9153423   -1.8498648   0.81850468 
    2200          4.4    1.3794673    2.0685879   -3.9185016   -1.8499137   0.82655399 
    2250          4.5    1.3703558    2.0549246   -3.9049662   -1.8500416   0.91160121 
    2300          4.6    1.3774177    2.0655144   -3.9153782   -1.8498639   0.85323273 
    2350          4.7    1.3880562    2.0814673   -3.9312953    -1.849828   0.82218076 
    2400          4.8    1.3796087    2.0687999   -3.9184127   -1.8496127   0.85108919 
    2450          4.9    1.3735613    2.0597315   -3.9094825   -1.8497509   0.89617694 
    2500            5    1.3839962    2.0753791   -3.9251993   -1.8498202   0.78416995 
Loop time of 8.46736 on 1 procs for 2500 steps with 3375 atoms

Performance: 51019.439 tau/day, 295.251 timesteps/s
99.7% CPU use with 1 MPI tasks x no OpenMP threads

MPI task timing breakdown:
Section |  min time  |  avg time  |  max time  |%varavg| %total
---------------------------------------------------------------
Pair    | 7.4228     | 7.4228     | 7.4228     |   0.0 | 87.66
Neigh   | 0.75251    | 0.75251    | 0.75251    |   0.0 |  8.89
Comm    | 0.10149    | 0.10149    | 0.10149    |   0.0 |  1.20
Output  | 0.00081081 | 0.00081081 | 0.00081081 |   0.0 |  0.01
Modify  | 0.16488    | 0.16488    | 0.16488    |   0.0 |  1.95
Other   |            | 0.02485    |            |       |  0.29

Nlocal:        3375.00 ave        3375 max        3375 min
Histogram: 1 0 0 0 0 0 0 0 0 0
Nghost:        5376.00 ave        5376 max        5376 min
Histogram: 1 0 0 0 0 0 0 0 0 0
Neighs:        153833.0 ave      153833 max      153833 min
Histogram: 1 0 0 0 0 0 0 0 0 0

Total # of neighbors = 153833
Ave neighs/atom = 45.580148
Neighbor list builds = 125
Dangerous builds not checked
variable        diff_accum equal ${diff_accum}+${diff_integ}/(3*${loop_iterations})
variable        diff_accum equal 0.0343966308034863+${diff_integ}/(3*${loop_iterations})
variable        diff_accum equal 0.0343966308034863+0.691183832252267/(3*${loop_iterations})
variable        diff_accum equal 0.0343966308034863+0.691183832252267/(3*25)
unfix           fixVACF
write_data      liquid.T${temp}.rho${rho}.data
write_data      liquid.T1.4.rho${rho}.data
write_data      liquid.T1.4.rho0.61.data
System init for write_data ...
print           "" append log.vacf.T${temp}.rho${rho}.txt screen no
print           "" append log.vacf.T1.4.rho${rho}.txt screen no
print           "" append log.vacf.T1.4.rho0.61.txt screen no

next            loop_counter
jump            SELF loop
clear

pair_style	lj/smooth 2.5 3.0

read_data       liquid.T${temp}.rho${rho}.data
read_data       liquid.T1.4.rho${rho}.data
read_data       liquid.T1.4.rho0.61.data
Reading data file ...
  orthogonal box = (0.0000000 0.0000000 0.0000000) to (17.686748 17.686748 17.686748)
  1 by 1 by 1 MPI processor grid
  reading atoms ...
  3375 atoms
  reading velocities ...
  3375 velocities
  read_data CPU = 0.009 seconds

neighbor	0.3 bin
neigh_modify	every 20 delay 0 check no

fix		1 all nve
timestep        0.002
thermo		50

reset_timestep  0
compute         myVACF all vacf

fix             fixVACF all vector 1 c_myVACF[4]
variable        diff_integ equal dt*trap(f_fixVACF)
variable        curVACF equal c_myVACF[4]

variable        step0 equal step
variable        step0 equal $(v_step0)
variable        step0 equal 0
variable        dtime equal (step-${step0})*dt
variable        dtime equal (step-0)*dt
fix             print_vacf all print 2 "${dtime} ${curVACF} ${diff_integ}" append log.vacf.T${temp}.rho${rho}.txt screen no
fix             print_vacf all print 2 "${dtime} ${curVACF} ${diff_integ}" append log.vacf.T1.4.rho${rho}.txt screen no
fix             print_vacf all print 2 "${dtime} ${curVACF} ${diff_integ}" append log.vacf.T1.4.rho0.61.txt screen no
thermo_style	custom step time temp ke pe etotal press

run             ${loop_length}
run             2500
Neighbor list info ...
  update every 20 steps, delay 0 steps, check no
  max neighbors/atom: 2000, page size: 100000
  master list distance cutoff = 3.3
  ghost atom cutoff = 3.3
  binsize = 1.65, bins = 11 11 11
  1 neighbor lists, perpetual/occasional/extra = 1 0 0
  (1) pair lj/smooth, perpetual
      attributes: half, newton on
      pair build: half/bin/atomonly/newton
      stencil: half/bin/3d
      bin: standard
Per MPI rank memory allocation (min/avg/max) = 3.546 | 3.546 | 3.546 Mbytes
Step Time Temp KinEng PotEng TotEng Press 
       0            0    1.3839962    2.0753791   -3.9251993   -1.8498202   0.78416995 
      50          0.1    1.3652124    2.0472118   -3.8968169    -1.849605   0.85634774 
     100          0.2    1.3567161    2.0344712   -3.8843458   -1.8498746    0.9319517 
     150          0.3    1.3784682    2.0670897   -3.9166552   -1.8495655   0.79455447 
     200          0.4    1.3729291    2.0587835   -3.9088457   -1.8500623   0.78076643 
     250          0.5    1.3696717    2.0538989   -3.9038022   -1.8499033   0.79846423 
     300          0.6    1.3899334    2.0842823     -3.93436   -1.8500777    0.7037629 
     350          0.7    1.3874413    2.0805453   -3.9305116   -1.8499662   0.72942611 
     400          0.8    1.3469191    2.0197801   -3.8701331    -1.850353      1.00528 
     450          0.9    1.3521718    2.0276567   -3.8778165   -1.8501598   0.97045398 
     500            1    1.3627309    2.0434907   -3.8934659   -1.8499752   0.87829374 
     550          1.1    1.3875964    2.0807779   -3.9306582   -1.8498804   0.75189691 
     600          1.2    1.3688774    2.0527078   -3.9026035   -1.8498958   0.84251732 
     650          1.3    1.3850222    2.0769177   -3.9269545   -1.8500368   0.78580938 
     700          1.4    1.3779047    2.0662447   -3.9160967    -1.849852   0.80695066 
     750          1.5     1.368174     2.051653   -3.9012653   -1.8496123   0.84472613 
     800          1.6    1.3799639    2.0693325   -3.9188617   -1.8495292   0.79181538 
     850          1.7    1.3616304    2.0418404   -3.8915425   -1.8497022   0.88400465 
     900          1.8     1.364602    2.0462964   -3.8956182   -1.8493218   0.85258754 
     950          1.9    1.3526885    2.0284316    -3.877966   -1.8495344   0.90144689 
    1000            2     1.384495    2.0761272   -3.9258336   -1.8497064   0.79399933 
    1050          2.1    1.3531427    2.0291126   -3.8785559   -1.8494433   0.91768943 
    1100          2.2    1.3673296    2.0503868   -3.8999093   -1.8495226   0.83328071 
    1150          2.3    1.3686795     2.052411   -3.9017275   -1.8493165    0.8771931 
    1200          2.4     1.371706    2.0569494   -3.9070508   -1.8501014   0.89488485 
    1250          2.5     1.372703    2.0584443   -3.9082856   -1.8498413   0.87218011 
    1300          2.6    1.3872631    2.0802781   -3.9303956   -1.8501175   0.79530864 
    1350          2.7    1.3742794    2.0608083   -3.9106179   -1.8498095   0.83871118 
    1400          2.8     1.368077    2.0515075   -3.9012934   -1.8497859   0.84635076 
    1450          2.9    1.3678718    2.0511998   -3.9012404   -1.8500406   0.85311043 
    1500            3    1.3688112    2.0526085   -3.9025296   -1.8499211   0.86924718 
    1550          3.1    1.3684111    2.0520084   -3.9019065   -1.8498981   0.89861212 
    1600          3.2    1.3753339    2.0623896   -3.9125902   -1.8502006   0.87004656 
    1650          3.3    1.3736435    2.0598547   -3.9098819   -1.8500271   0.84123642 
    1700          3.4    1.3758773    2.0632045   -3.9131778   -1.8499734   0.82113546 
    1750          3.5    1.3568477    2.0346685   -3.8846275    -1.849959   0.89803347 
    1800          3.6    1.3919822    2.0873547   -3.9374408   -1.8500861   0.70754832 
    1850          3.7    1.3743452    2.0609069   -3.9110497   -1.8501428   0.84534724 
    1900          3.8    1.3661568     2.048628   -3.8982396   -1.8496116   0.92659857 
    1950          3.9    1.3820131    2.0724054   -3.9221156   -1.8497103   0.86523016 
    2000            4     1.377765    2.0660352   -3.9155769   -1.8495417   0.83521291 
    2050          4.1    1.3663035     2.048848   -3.8988523   -1.8500043   0.86373146 
    2100          4.2    1.3736503    2.0598649   -3.9094309    -1.849566    0.8578967 
    2150          4.3     1.387541    2.0806949   -3.9306536   -1.8499587   0.75732278 
    2200          4.4    1.3720718    2.0574978   -3.9066962   -1.8491984   0.86553843 
    2250          4.5    1.3872081    2.0801956    -3.929583   -1.8493875   0.81823979 
    2300          4.6    1.3882928    2.0818222   -3.9317033   -1.8498811   0.76788405 
    2350          4.7    1.3805116    2.0701538   -3.9199643   -1.8498105    0.8151579 
    2400          4.8     1.378111     2.066554   -3.9169469   -1.8503929   0.89961157 
    2450          4.9    1.3625216    2.0431768   -3.8935085   -1.8503317    1.0039281 
    2500            5    1.3953238    2.0923656    -3.942527   -1.8501613   0.84330047 
Loop time of 8.47845 on 1 procs for 2500 steps with 3375 atoms

Performance: 50952.682 tau/day, 294.865 timesteps/s
99.7% CPU use with 1 MPI tasks x no OpenMP threads

MPI task timing breakdown:
Section |  min time  |  avg time  |  max time  |%varavg| %total
---------------------------------------------------------------
Pair    | 7.4368     | 7.4368     | 7.4368     |   0.0 | 87.71
Neigh   | 0.74664    | 0.74664    | 0.74664    |   0.0 |  8.81
Comm    | 0.10226    | 0.10226    | 0.10226    |   0.0 |  1.21
Output  | 0.00081597 | 0.00081597 | 0.00081597 |   0.0 |  0.01
Modify  | 0.16704    | 0.16704    | 0.16704    |   0.0 |  1.97
Other   |            | 0.02486    |            |       |  0.29

Nlocal:        3375.00 ave        3375 max        3375 min
Histogram: 1 0 0 0 0 0 0 0 0 0
Nghost:        5339.00 ave        5339 max        5339 min
Histogram: 1 0 0 0 0 0 0 0 0 0
Neighs:        153960.0 ave      153960 max      153960 min
Histogram: 1 0 0 0 0 0 0 0 0 0

Total # of neighbors = 153960
Ave neighs/atom = 45.617778
Neighbor list builds = 125
Dangerous builds not checked
variable        diff_accum equal ${diff_accum}+${diff_integ}/(3*${loop_iterations})
variable        diff_accum equal 0.0436124152335165+${diff_integ}/(3*${loop_iterations})
variable        diff_accum equal 0.0436124152335165+0.726501360743972/(3*${loop_iterations})
variable        diff_accum equal 0.0436124152335165+0.726501360743972/(3*25)
unfix           fixVACF
write_data      liquid.T${temp}.rho${rho}.data
write_data      liquid.T1.4.rho${rho}.data
write_data      liquid.T1.4.rho0.61.data
System init for write_data ...
print           "" append log.vacf.T${temp}.rho${rho}.txt screen no
print           "" append log.vacf.T1.4.rho${rho}.txt screen no
print           "" append log.vacf.T1.4.rho0.61.txt screen no

next            loop_counter
jump            SELF loop
clear

pair_style	lj/smooth 2.5 3.0

read_data       liquid.T${temp}.rho${rho}.data
read_data       liquid.T1.4.rho${rho}.data
read_data       liquid.T1.4.rho0.61.data
Reading data file ...
  orthogonal box = (0.0000000 0.0000000 0.0000000) to (17.686748 17.686748 17.686748)
  1 by 1 by 1 MPI processor grid
  reading atoms ...
  3375 atoms
  reading velocities ...
  3375 velocities
  read_data CPU = 0.009 seconds

neighbor	0.3 bin
neigh_modify	every 20 delay 0 check no

fix		1 all nve
timestep        0.002
thermo		50

reset_timestep  0
compute         myVACF all vacf

fix             fixVACF all vector 1 c_myVACF[4]
variable        diff_integ equal dt*trap(f_fixVACF)
variable        curVACF equal c_myVACF[4]

variable        step0 equal step
variable        step0 equal $(v_step0)
variable        step0 equal 0
variable        dtime equal (step-${step0})*dt
variable        dtime equal (step-0)*dt
fix             print_vacf all print 2 "${dtime} ${curVACF} ${diff_integ}" append log.vacf.T${temp}.rho${rho}.txt screen no
fix             print_vacf all print 2 "${dtime} ${curVACF} ${diff_integ}" append log.vacf.T1.4.rho${rho}.txt screen no
fix             print_vacf all print 2 "${dtime} ${curVACF} ${diff_integ}" append log.vacf.T1.4.rho0.61.txt screen no
thermo_style	custom step time temp ke pe etotal press

run             ${loop_length}
run             2500
Neighbor list info ...
  update every 20 steps, delay 0 steps, check no
  max neighbors/atom: 2000, page size: 100000
  master list distance cutoff = 3.3
  ghost atom cutoff = 3.3
  binsize = 1.65, bins = 11 11 11
  1 neighbor lists, perpetual/occasional/extra = 1 0 0
  (1) pair lj/smooth, perpetual
      attributes: half, newton on
      pair build: half/bin/atomonly/newton
      stencil: half/bin/3d
      bin: standard
Per MPI rank memory allocation (min/avg/max) = 3.550 | 3.550 | 3.550 Mbytes
Step Time Temp KinEng PotEng TotEng Press 
       0            0    1.3953238    2.0923656    -3.942527   -1.8501613   0.84330047 
      50          0.1    1.3816996    2.0719353   -3.9220216   -1.8500863   0.85916778 
     100          0.2    1.3898519    2.0841602   -3.9345693   -1.8504091    0.7991728 
     150          0.3    1.3762558    2.0637721   -3.9137374   -1.8499653   0.84448625 
     200          0.4    1.3828549    2.0736678   -3.9236746   -1.8500068    0.8229772 
     250          0.5    1.3721633    2.0576351   -3.9078344   -1.8501993    0.8890549 
     300          0.6    1.3593151    2.0383684   -3.8882136   -1.8498452   0.95979601 
     350          0.7    1.3685232    2.0521766   -3.9020575   -1.8498809   0.90964828 
     400          0.8    1.3807294    2.0704805   -3.9202562   -1.8497757   0.85263956 
     450          0.9    1.3695783    2.0537587   -3.9039047    -1.850146   0.89810578 
     500            1    1.3620156    2.0424181   -3.8931881     -1.85077    0.9166887 
     550          1.1    1.3761368    2.0635936   -3.9138687   -1.8502751   0.85650289 
     600          1.2    1.3710761    2.0560048   -3.9060857    -1.850081   0.87427787 
     650          1.3    1.3617405    2.0420055   -3.8920168   -1.8500113   0.89944071 
     700          1.4    1.3801115    2.0695538   -3.9192562   -1.8497024   0.82266163 
     750          1.5    1.3684099    2.0520067   -3.9019673   -1.8499606   0.87762846 
     800          1.6    1.3776101    2.0658029   -3.9157266   -1.8499237   0.83260064 
     850          1.7    1.3808802    2.0707066   -3.9206085    -1.849902   0.81107954 
     900          1.8    1.3651948    2.0471854   -3.8965051   -1.8493197   0.88064771 
     950          1.9     1.363674    2.0449049   -3.8946489    -1.849744   0.89595708 
    1000            2    1.3581363    2.0366009   -3.8867823   -1.8501814   0.89839951 
    1050          2.1    1.3793424    2.0684005   -3.9184826    -1.850082   0.77641468 
    1100          2.2    1.3677153    2.0509651   -3.9006503   -1.8496852   0.83411099 
    1150          2.3    1.3630822    2.0440175   -3.8938248   -1.8498073   0.86390788 
    1200          2.4    1.3818468    2.0721561   -3.9223567   -1.8502005   0.76001952 
    1250          2.5    1.3621575    2.0426308   -3.8923435   -1.8497126   0.86895719 
    1300          2.6    1.3679132    2.0512619   -3.9011611   -1.8498992   0.81356962 
    1350          2.7     1.359486    2.0386248   -3.8880918    -1.849467   0.87368121 
    1400          2.8    1.3782491    2.0667611   -3.9161296   -1.8493685   0.79350682 
    1450          2.9    1.3728816    2.0587123   -3.9084204   -1.8497081   0.83469539 
    1500            3    1.3740431     2.060454   -3.9101015   -1.8496475   0.82849368 
    1550          3.1    1.3650188    2.0469215   -3.8963803   -1.8494588    0.8802587 
    1600          3.2     1.378852    2.0676652   -3.9176475   -1.8499822   0.81103049 
    1650          3.3    1.3721586     2.057628   -3.9072581   -1.8496301   0.80131714 
    1700          3.4    1.3678532    2.0511719   -3.9011925   -1.8500207   0.85682135 
    1750          3.5    1.3663068     2.048853   -3.8984704   -1.8496174   0.89336032 
    1800          3.6    1.3900412     2.084444   -3.9344238   -1.8499798   0.80458487 
    1850          3.7    1.3917512    2.0870082    -3.936904   -1.8498958   0.78142163 
    1900          3.8    1.3728982    2.0587371   -3.9085376   -1.8498005    0.8296193 
    1950          3.9    1.3664604    2.0490832   -3.8992765   -1.8501933   0.86840181 
    2000            4    1.3745916    2.0612764   -3.9116342   -1.8503577   0.84287224 
    2050          4.1    1.3708406    2.0556517   -3.9061177    -1.850466   0.88634321 
    2100          4.2    1.3629031    2.0437489   -3.8943948   -1.8506459   0.92515942 
    2150          4.3    1.3737774    2.0600555   -3.9105251   -1.8504696   0.84984261 
    2200          4.4    1.3935794    2.0897497   -3.9396281   -1.8498784    0.7518857 
    2250          4.5    1.3693891    2.0534751   -3.9037516   -1.8502765   0.86537879 
    2300          4.6    1.3778914    2.0662248   -3.9163029   -1.8500781   0.82064365 
    2350          4.7    1.3856894    2.0779182   -3.9280419   -1.8501237   0.76705543 
    2400          4.8    1.3780116     2.066405   -3.9167175   -1.8503125   0.80411065 
    2450          4.9    1.3705385    2.0551986   -3.9048139   -1.8496153   0.80919772 
    2500            5    1.3538047    2.0301054   -3.8801725   -1.8500671   0.90228595 
Loop time of 8.47525 on 1 procs for 2500 steps with 3375 atoms

Performance: 50971.933 tau/day, 294.976 timesteps/s
99.7% CPU use with 1 MPI tasks x no OpenMP threads

MPI task timing breakdown:
Section |  min time  |  avg time  |  max time  |%varavg| %total
---------------------------------------------------------------
Pair    | 7.4326     | 7.4326     | 7.4326     |   0.0 | 87.70
Neigh   | 0.75225    | 0.75225    | 0.75225    |   0.0 |  8.88
Comm    | 0.10142    | 0.10142    | 0.10142    |   0.0 |  1.20
Output  | 0.00081505 | 0.00081505 | 0.00081505 |   0.0 |  0.01
Modify  | 0.16301    | 0.16301    | 0.16301    |   0.0 |  1.92
Other   |            | 0.02511    |            |       |  0.30

Nlocal:        3375.00 ave        3375 max        3375 min
Histogram: 1 0 0 0 0 0 0 0 0 0
Nghost:        5271.00 ave        5271 max        5271 min
Histogram: 1 0 0 0 0 0 0 0 0 0
Neighs:        154096.0 ave      154096 max      154096 min
Histogram: 1 0 0 0 0 0 0 0 0 0

Total # of neighbors = 154096
Ave neighs/atom = 45.658074
Neighbor list builds = 125
Dangerous builds not checked
variable        diff_accum equal ${diff_accum}+${diff_integ}/(3*${loop_iterations})
variable        diff_accum equal 0.0532991000434361+${diff_integ}/(3*${loop_iterations})
variable        diff_accum equal 0.0532991000434361+0.700903256307461/(3*${loop_iterations})
variable        diff_accum equal 0.0532991000434361+0.700903256307461/(3*25)
unfix           fixVACF
write_data      liquid.T${temp}.rho${rho}.data
write_data      liquid.T1.4.rho${rho}.data
write_data      liquid.T1.4.rho0.61.data
System init for write_data ...
print           "" append log.vacf.T${temp}.rho${rho}.txt screen no
print           "" append log.vacf.T1.4.rho${rho}.txt screen no
print           "" append log.vacf.T1.4.rho0.61.txt screen no

next            loop_counter
jump            SELF loop
clear

pair_style	lj/smooth 2.5 3.0

read_data       liquid.T${temp}.rho${rho}.data
read_data       liquid.T1.4.rho${rho}.data
read_data       liquid.T1.4.rho0.61.data
Reading data file ...
  orthogonal box = (0.0000000 0.0000000 0.0000000) to (17.686748 17.686748 17.686748)
  1 by 1 by 1 MPI processor grid
  reading atoms ...
  3375 atoms
  reading velocities ...
  3375 velocities
  read_data CPU = 0.009 seconds

neighbor	0.3 bin
neigh_modify	every 20 delay 0 check no

fix		1 all nve
timestep        0.002
thermo		50

reset_timestep  0
compute         myVACF all vacf

fix             fixVACF all vector 1 c_myVACF[4]
variable        diff_integ equal dt*trap(f_fixVACF)
variable        curVACF equal c_myVACF[4]

variable        step0 equal step
variable        step0 equal $(v_step0)
variable        step0 equal 0
variable        dtime equal (step-${step0})*dt
variable        dtime equal (step-0)*dt
fix             print_vacf all print 2 "${dtime} ${curVACF} ${diff_integ}" append log.vacf.T${temp}.rho${rho}.txt screen no
fix             print_vacf all print 2 "${dtime} ${curVACF} ${diff_integ}" append log.vacf.T1.4.rho${rho}.txt screen no
fix             print_vacf all print 2 "${dtime} ${curVACF} ${diff_integ}" append log.vacf.T1.4.rho0.61.txt screen no
thermo_style	custom step time temp ke pe etotal press

run             ${loop_length}
run             2500
Neighbor list info ...
  update every 20 steps, delay 0 steps, check no
  max neighbors/atom: 2000, page size: 100000
  master list distance cutoff = 3.3
  ghost atom cutoff = 3.3
  binsize = 1.65, bins = 11 11 11
  1 neighbor lists, perpetual/occasional/extra = 1 0 0
  (1) pair lj/smooth, perpetual
      attributes: half, newton on
      pair build: half/bin/atomonly/newton
      stencil: half/bin/3d
      bin: standard
Per MPI rank memory allocation (min/avg/max) = 3.544 | 3.544 | 3.544 Mbytes
Step Time Temp KinEng PotEng TotEng Press 
       0            0    1.3538047    2.0301054   -3.8801725   -1.8500671   0.90228595 
      50          0.1    1.3730554    2.0589728   -3.9095394   -1.8505666   0.83547678 
     100          0.2    1.3744849    2.0611165    -3.911283   -1.8501665   0.88105461 
     150          0.3      1.37479    2.0615739   -3.9122863   -1.8507124   0.87183197 
     200          0.4     1.376526    2.0641772   -3.9143921   -1.8502149   0.88294495 
     250          0.5    1.3745482    2.0612113   -3.9111614   -1.8499501   0.88472076 
     300          0.6    1.3841851    2.0756625   -3.9256933   -1.8500309   0.79564075 
     350          0.7    1.3772862    2.0653172     -3.91514   -1.8498228   0.83837425 
     400          0.8    1.3868455    2.0796518   -3.9295907   -1.8499389   0.77976193 
     450          0.9    1.3675925    2.0507809   -3.9008293   -1.8500484   0.87092358 
     500            1    1.3640996    2.0455431    -3.895459   -1.8499159   0.89023168 
     550          1.1    1.3841162    2.0755591   -3.9250288   -1.8494697   0.78621405 
     600          1.2    1.3649319    2.0467912   -3.8963015   -1.8495103   0.89605276 
     650          1.3    1.3760931    2.0635281   -3.9133023   -1.8497742   0.82319496 
     700          1.4    1.3658558    2.0481766   -3.8977619   -1.8495852    0.8277247 
     750          1.5    1.3589338    2.0377968   -3.8875521   -1.8497553   0.84546437 
     800          1.6    1.3635503    2.0447195   -3.8945121   -1.8497926   0.87457697 
     850          1.7    1.3682194     2.051721   -3.9014209   -1.8496999   0.84485771 
     900          1.8    1.3571585    2.0351346   -3.8848577   -1.8497231   0.89633806 
     950          1.9    1.3662201    2.0487229   -3.8983965   -1.8496737   0.85381069 
    1000            2    1.3645395    2.0462028   -3.8957453   -1.8495425   0.88018518 
    1050          2.1    1.3735902    2.0597748   -3.9094834   -1.8497087   0.83988219 
    1100          2.2    1.3712207    2.0562216   -3.9056855   -1.8494639   0.86981238 
    1150          2.3    1.3798107    2.0691027   -3.9187347    -1.849632   0.84982067 
    1200          2.4    1.3774236    2.0655233   -3.9152895   -1.8497662   0.84811109 
    1250          2.5    1.3656766    2.0479079   -3.8975141   -1.8496062   0.88594921 
    1300          2.6    1.3835367    2.0746901   -3.9246224   -1.8499323   0.78241148 
    1350          2.7    1.3536319    2.0298463   -3.8799771   -1.8501309   0.91646286 
    1400          2.8    1.3546924    2.0314365   -3.8809584   -1.8495219   0.89621418 
    1450          2.9    1.3717132    2.0569601   -3.9068526   -1.8498925   0.82582588 
    1500            3    1.3731556    2.0591231   -3.9092271    -1.850104   0.80622089 
    1550          3.1    1.3615682    2.0417472   -3.8912906   -1.8495435   0.84733298 
    1600          3.2    1.3749581    2.0618261   -3.9112933   -1.8494673   0.76415089 
    1650          3.3    1.3661901     2.048678   -3.8979932   -1.8493152   0.81566186 
    1700          3.4    1.3548311    2.0316445   -3.8814514   -1.8498069   0.83823767 
    1750          3.5    1.3795199    2.0686668   -3.9185482   -1.8498814   0.77104624 
    1800          3.6    1.3621285    2.0425873   -3.8920701   -1.8494828   0.89002053 
    1850          3.7     1.395132    2.0920779   -3.9418633   -1.8497854   0.72493121 
    1900          3.8    1.3945528    2.0912094   -3.9411568   -1.8499474   0.75332061 
    1950          3.9    1.3791563    2.0681215   -3.9180399   -1.8499185   0.84926506 
    2000            4    1.3864843    2.0791103   -3.9290279   -1.8499176   0.80050805 
    2050          4.1    1.3840609    2.0754761   -3.9255863   -1.8501102   0.87117273 
    2100          4.2    1.3898402    2.0841426   -3.9342328   -1.8500901   0.83574324 
    2150          4.3    1.3804745    2.0700981   -3.9201476   -1.8500495   0.89066982 
    2200          4.4     1.385693    2.0779236   -3.9279025   -1.8499789   0.83780945 
    2250          4.5    1.3793288    2.0683801   -3.9182186   -1.8498385   0.83037354 
    2300          4.6    1.3900083    2.0843946   -3.9343218   -1.8499272   0.79063561 
    2350          4.7    1.3717886    2.0570732   -3.9069378   -1.8498646   0.84980128 
    2400          4.8    1.3820537    2.0724663   -3.9221648   -1.8496985   0.78936992 
    2450          4.9    1.3689968    2.0528868    -3.902578   -1.8496913   0.84851526 
    2500            5    1.3694974    2.0536374   -3.9036336   -1.8499962   0.86715451 
Loop time of 8.59949 on 1 procs for 2500 steps with 3375 atoms

Performance: 50235.561 tau/day, 290.715 timesteps/s
99.8% CPU use with 1 MPI tasks x no OpenMP threads

MPI task timing breakdown:
Section |  min time  |  avg time  |  max time  |%varavg| %total
---------------------------------------------------------------
Pair    | 7.5511     | 7.5511     | 7.5511     |   0.0 | 87.81
Neigh   | 0.75274    | 0.75274    | 0.75274    |   0.0 |  8.75
Comm    | 0.10242    | 0.10242    | 0.10242    |   0.0 |  1.19
Output  | 0.00079884 | 0.00079884 | 0.00079884 |   0.0 |  0.01
Modify  | 0.16754    | 0.16754    | 0.16754    |   0.0 |  1.95
Other   |            | 0.02494    |            |       |  0.29

Nlocal:        3375.00 ave        3375 max        3375 min
Histogram: 1 0 0 0 0 0 0 0 0 0
Nghost:        5393.00 ave        5393 max        5393 min
Histogram: 1 0 0 0 0 0 0 0 0 0
Neighs:        153700.0 ave      153700 max      153700 min
Histogram: 1 0 0 0 0 0 0 0 0 0

Total # of neighbors = 153700
Ave neighs/atom = 45.540741
Neighbor list builds = 125
Dangerous builds not checked
variable        diff_accum equal ${diff_accum}+${diff_integ}/(3*${loop_iterations})
variable        diff_accum equal 0.0626444767942022+${diff_integ}/(3*${loop_iterations})
variable        diff_accum equal 0.0626444767942022+0.581117500383184/(3*${loop_iterations})
variable        diff_accum equal 0.0626444767942022+0.581117500383184/(3*25)
unfix           fixVACF
write_data      liquid.T${temp}.rho${rho}.data
write_data      liquid.T1.4.rho${rho}.data
write_data      liquid.T1.4.rho0.61.data
System init for write_data ...
print           "" append log.vacf.T${temp}.rho${rho}.txt screen no
print           "" append log.vacf.T1.4.rho${rho}.txt screen no
print           "" append log.vacf.T1.4.rho0.61.txt screen no

next            loop_counter
jump            SELF loop
clear

pair_style	lj/smooth 2.5 3.0

read_data       liquid.T${temp}.rho${rho}.data
read_data       liquid.T1.4.rho${rho}.data
read_data       liquid.T1.4.rho0.61.data
Reading data file ...
  orthogonal box = (0.0000000 0.0000000 0.0000000) to (17.686748 17.686748 17.686748)
  1 by 1 by 1 MPI processor grid
  reading atoms ...
  3375 atoms
  reading velocities ...
  3375 velocities
  read_data CPU = 0.009 seconds

neighbor	0.3 bin
neigh_modify	every 20 delay 0 check no

fix		1 all nve
timestep        0.002
thermo		50

reset_timestep  0
compute         myVACF all vacf

fix             fixVACF all vector 1 c_myVACF[4]
variable        diff_integ equal dt*trap(f_fixVACF)
variable        curVACF equal c_myVACF[4]

variable        step0 equal step
variable        step0 equal $(v_step0)
variable        step0 equal 0
variable        dtime equal (step-${step0})*dt
variable        dtime equal (step-0)*dt
fix             print_vacf all print 2 "${dtime} ${curVACF} ${diff_integ}" append log.vacf.T${temp}.rho${rho}.txt screen no
fix             print_vacf all print 2 "${dtime} ${curVACF} ${diff_integ}" append log.vacf.T1.4.rho${rho}.txt screen no
fix             print_vacf all print 2 "${dtime} ${curVACF} ${diff_integ}" append log.vacf.T1.4.rho0.61.txt screen no
thermo_style	custom step time temp ke pe etotal press

run             ${loop_length}
run             2500
Neighbor list info ...
  update every 20 steps, delay 0 steps, check no
  max neighbors/atom: 2000, page size: 100000
  master list distance cutoff = 3.3
  ghost atom cutoff = 3.3
  binsize = 1.65, bins = 11 11 11
  1 neighbor lists, perpetual/occasional/extra = 1 0 0
  (1) pair lj/smooth, perpetual
      attributes: half, newton on
      pair build: half/bin/atomonly/newton
      stencil: half/bin/3d
      bin: standard
Per MPI rank memory allocation (min/avg/max) = 3.547 | 3.547 | 3.547 Mbytes
Step Time Temp KinEng PotEng TotEng Press 
       0            0    1.3694974    2.0536374   -3.9036336   -1.8499962   0.86715451 
      50          0.1    1.3775118    2.0656555   -3.9151997   -1.8495442   0.86631114 
     100          0.2    1.3917859    2.0870603   -3.9366885   -1.8496283   0.79667229 
     150          0.3    1.3782272    2.0667282   -3.9166649   -1.8499366   0.83294086 
     200          0.4    1.3818987    2.0722339   -3.9218406   -1.8496067   0.79898747 
     250          0.5    1.3718045    2.0570971   -3.9067409   -1.8496439   0.88162015 
     300          0.6    1.3754202    2.0625191    -3.912293   -1.8497739   0.88477004 
     350          0.7    1.3801369     2.069592   -3.9194137   -1.8498217   0.85193698 
     400          0.8    1.3677926     2.051081   -3.9008342   -1.8497532    0.9094778 
     450          0.9    1.3576006    2.0357975   -3.8857533   -1.8499559    0.9490029 
     500            1     1.375458    2.0625756   -3.9124357   -1.8498601   0.85646328 
     550          1.1    1.3709922    2.0558789   -3.9054193   -1.8495404   0.83275964 
     600          1.2    1.3709389    2.0557991   -3.9055435   -1.8497444   0.85442782 
     650          1.3    1.3792738    2.0682977   -3.9180784   -1.8497807   0.79278204 
     700          1.4    1.3812325    2.0712348   -3.9206702   -1.8494354   0.77935467 
     750          1.5     1.358436    2.0370503   -3.8869615   -1.8499112   0.90855522 
     800          1.6    1.3673945    2.0504841    -3.900471   -1.8499869   0.83180798 
     850          1.7    1.3659934     2.048383   -3.8978261   -1.8494432   0.81829048 
     900          1.8    1.3727199    2.0584698   -3.9080094   -1.8495396   0.80888107 
     950          1.9    1.3841429    2.0755992   -3.9253265   -1.8497273    0.7618561 
    1000            2    1.3598804    2.0392163    -3.888895   -1.8496787   0.85911415 
    1050          2.1     1.359681    2.0389171   -3.8892109   -1.8502938   0.90875756 
    1100          2.2    1.3720482    2.0574625   -3.9076322   -1.8501697   0.88119761 
    1150          2.3    1.3701068    2.0545512   -3.9048069   -1.8502557   0.88248123 
    1200          2.4    1.3658434    2.0481581   -3.8982436   -1.8500855   0.84457702 
    1250          2.5    1.3571585    2.0351345   -3.8849194   -1.8497849    0.8562415 
    1300          2.6    1.3639233    2.0452787   -3.8953618   -1.8500831   0.80387693 
    1350          2.7    1.3734059    2.0594985   -3.9094679   -1.8499694   0.77996404 
    1400          2.8    1.3787603    2.0675277   -3.9175261   -1.8499985   0.78361374 
    1450          2.9    1.3767166     2.064463   -3.9144955   -1.8500324   0.78288601 
    1500            3    1.3837118    2.0749527   -3.9247179   -1.8497653   0.73225452 
    1550          3.1    1.3756637    2.0628842   -3.9124902   -1.8496061   0.77637986 
    1600          3.2    1.3690226    2.0529255   -3.9023988   -1.8494733   0.81324889 
    1650          3.3    1.3522297    2.0277436   -3.8774983   -1.8497548   0.89190066 
    1700          3.4    1.3811095    2.0710504   -3.9207355   -1.8496851   0.76959332 
    1750          3.5    1.3711474    2.0561117    -3.906216   -1.8501043   0.84479537 
    1800          3.6    1.3711292    2.0560844   -3.9059072   -1.8498228   0.82189956 
    1850          3.7    1.3902894    2.0848163   -3.9348538   -1.8500375   0.73442034 
    1900          3.8    1.3759999    2.0633883    -3.913178   -1.8497897   0.78353701 
    1950          3.9    1.3701338    2.0545918   -3.9038112   -1.8492194   0.81674765 
    2000            4     1.372952    2.0588178   -3.9081466   -1.8493288   0.82838678 
    2050          4.1    1.3590994     2.038045   -3.8872699   -1.8492249   0.89392135 
    2100          4.2    1.3520633    2.0274941   -3.8767165   -1.8492225   0.93325892 
    2150          4.3    1.3589006    2.0377469   -3.8873977   -1.8496508   0.90502324 
    2200          4.4    1.3689769    2.0528569   -3.9024961   -1.8496392    0.8309798 
    2250          4.5    1.3671189    2.0500707   -3.8995006   -1.8494299   0.80056401 
    2300          4.6    1.3704381    2.0550481   -3.9046032   -1.8495551   0.77101998 
    2350          4.7    1.3516148    2.0268214   -3.8763948   -1.8495734   0.85070516 
    2400          4.8    1.3800892    2.0695205   -3.9193824    -1.849862   0.75342374 
    2450          4.9    1.3855033    2.0776391   -3.9273115   -1.8496723   0.75004643 
    2500            5    1.3643264    2.0458833   -3.8954928   -1.8496095   0.88057164 
Loop time of 8.47571 on 1 procs for 2500 steps with 3375 atoms

Performance: 50969.153 tau/day, 294.960 timesteps/s
99.7% CPU use with 1 MPI tasks x no OpenMP threads

MPI task timing breakdown:
Section |  min time  |  avg time  |  max time  |%varavg| %total
---------------------------------------------------------------
Pair    | 7.4291     | 7.4291     | 7.4291     |   0.0 | 87.65
Neigh   | 0.75342    | 0.75342    | 0.75342    |   0.0 |  8.89
Comm    | 0.10345    | 0.10345    | 0.10345    |   0.0 |  1.22
Output  | 0.00080491 | 0.00080491 | 0.00080491 |   0.0 |  0.01
Modify  | 0.16399    | 0.16399    | 0.16399    |   0.0 |  1.93
Other   |            | 0.02498    |            |       |  0.29

Nlocal:        3375.00 ave        3375 max        3375 min
Histogram: 1 0 0 0 0 0 0 0 0 0
Nghost:        5389.00 ave        5389 max        5389 min
Histogram: 1 0 0 0 0 0 0 0 0 0
Neighs:        153641.0 ave      153641 max      153641 min
Histogram: 1 0 0 0 0 0 0 0 0 0

Total # of neighbors = 153641
Ave neighs/atom = 45.523259
Neighbor list builds = 125
Dangerous builds not checked
variable        diff_accum equal ${diff_accum}+${diff_integ}/(3*${loop_iterations})
variable        diff_accum equal 0.0703927101326446+${diff_integ}/(3*${loop_iterations})
variable        diff_accum equal 0.0703927101326446+0.671845898363985/(3*${loop_iterations})
variable        diff_accum equal 0.0703927101326446+0.671845898363985/(3*25)
unfix           fixVACF
write_data      liquid.T${temp}.rho${rho}.data
write_data      liquid.T1.4.rho${rho}.data
write_data      liquid.T1.4.rho0.61.data
System init for write_data ...
print           "" append log.vacf.T${temp}.rho${rho}.txt screen no
print           "" append log.vacf.T1.4.rho${rho}.txt screen no
print           "" append log.vacf.T1.4.rho0.61.txt screen no

next            loop_counter
jump            SELF loop
clear

pair_style	lj/smooth 2.5 3.0

read_data       liquid.T${temp}.rho${rho}.data
read_data       liquid.T1.4.rho${rho}.data
read_data       liquid.T1.4.rho0.61.data
Reading data file ...
  orthogonal box = (0.0000000 0.0000000 0.0000000) to (17.686748 17.686748 17.686748)
  1 by 1 by 1 MPI processor grid
  reading atoms ...
  3375 atoms
  reading velocities ...
  3375 velocities
  read_data CPU = 0.009 seconds

neighbor	0.3 bin
neigh_modify	every 20 delay 0 check no

fix		1 all nve
timestep        0.002
thermo		50

reset_timestep  0
compute         myVACF all vacf

fix             fixVACF all vector 1 c_myVACF[4]
variable        diff_integ equal dt*trap(f_fixVACF)
variable        curVACF equal c_myVACF[4]

variable        step0 equal step
variable        step0 equal $(v_step0)
variable        step0 equal 0
variable        dtime equal (step-${step0})*dt
variable        dtime equal (step-0)*dt
fix             print_vacf all print 2 "${dtime} ${curVACF} ${diff_integ}" append log.vacf.T${temp}.rho${rho}.txt screen no
fix             print_vacf all print 2 "${dtime} ${curVACF} ${diff_integ}" append log.vacf.T1.4.rho${rho}.txt screen no
fix             print_vacf all print 2 "${dtime} ${curVACF} ${diff_integ}" append log.vacf.T1.4.rho0.61.txt screen no
thermo_style	custom step time temp ke pe etotal press

run             ${loop_length}
run             2500
Neighbor list info ...
  update every 20 steps, delay 0 steps, check no
  max neighbors/atom: 2000, page size: 100000
  master list distance cutoff = 3.3
  ghost atom cutoff = 3.3
  binsize = 1.65, bins = 11 11 11
  1 neighbor lists, perpetual/occasional/extra = 1 0 0
  (1) pair lj/smooth, perpetual
      attributes: half, newton on
      pair build: half/bin/atomonly/newton
      stencil: half/bin/3d
      bin: standard
Per MPI rank memory allocation (min/avg/max) = 3.553 | 3.553 | 3.553 Mbytes
Step Time Temp KinEng PotEng TotEng Press 
       0            0    1.3643264    2.0458833   -3.8954928   -1.8496095   0.88057164 
      50          0.1    1.3645772    2.0462593   -3.8957736   -1.8495143   0.85925073 
     100          0.2    1.3709755     2.055854   -3.9056131   -1.8497591   0.84529792 
     150          0.3    1.3776805    2.0659085   -3.9162142   -1.8503057   0.83944296 
     200          0.4    1.3746106    2.0613049   -3.9110085   -1.8497036    0.8533507 
     250          0.5    1.3769006    2.0647389   -3.9144699    -1.849731   0.84054377 
     300          0.6    1.3888935    2.0827229   -3.9322833   -1.8495604   0.82019611 
     350          0.7    1.3799783    2.0693542   -3.9186709   -1.8493167   0.86869868 
     400          0.8    1.3789251    2.0677748   -3.9172217   -1.8494469   0.84688562 
     450          0.9    1.3819376    2.0722921   -3.9219058   -1.8496136    0.8235887 
     500            1    1.3776973    2.0659337   -3.9156791   -1.8497454   0.85421611 
     550          1.1    1.3766745    2.0643999   -3.9137752   -1.8493753   0.89666086 
     600          1.2    1.3766438    2.0643538    -3.914204   -1.8498502   0.89790881 
     650          1.3    1.3497451    2.0240178   -3.8741118    -1.850094   0.97115347 
     700          1.4    1.3667545    2.0495244   -3.8994544     -1.84993   0.87164656 
     750          1.5    1.3723397    2.0578996    -3.907553   -1.8496534   0.85438379 
     800          1.6     1.372492    2.0581279   -3.9073933   -1.8492653   0.87521847 
     850          1.7    1.3838618    2.0751777   -3.9243536   -1.8491759   0.83561737 
     900          1.8    1.3684647    2.0520889   -3.9015412   -1.8494523   0.89084951 
     950          1.9     1.389905    2.0842398   -3.9339378    -1.849698   0.71242079 
    1000            2     1.373266    2.0592887   -3.9088681   -1.8495794   0.75670467 
    1050          2.1    1.3818207    2.0721168   -3.9218196   -1.8497028   0.69725548 
    1100          2.2     1.360162    2.0396386   -3.8893712   -1.8497327   0.83347038 
    1150          2.3    1.3678568    2.0511773   -3.9010339   -1.8498566   0.83902764 
    1200          2.4    1.3582825      2.03682   -3.8871052   -1.8502852   0.91960154 
    1250          2.5     1.361736    2.0419988   -3.8925318    -1.850533   0.87752007 
    1300          2.6    1.3774571    2.0655734   -3.9154243   -1.8498509   0.82460049 
    1350          2.7    1.3778963    2.0662321   -3.9160493   -1.8498172   0.83513924 
    1400          2.8     1.364384    2.0459696   -3.8954747    -1.849505   0.87929719 
    1450          2.9     1.398373    2.0969381   -3.9468511   -1.8499131   0.72566251 
    1500            3    1.3784222    2.0670206   -3.9166873   -1.8496667   0.87277672 
    1550          3.1    1.3807704    2.0705419    -3.920244   -1.8497021   0.84697117 
    1600          3.2    1.3725048    2.0581471   -3.9076814   -1.8495342   0.85816058 
    1650          3.3    1.3924676    2.0880825    -3.937786   -1.8497035   0.74667273 
    1700          3.4    1.3708275    2.0556319   -3.9056269   -1.8499949   0.88722413 
    1750          3.5    1.3650981    2.0470404   -3.8970948   -1.8500544   0.94128144 
[...]
    1850          3.7    1.3672154    2.0502155   -3.9001293   -1.8499138   0.91802306 
    1900          3.8    1.3533869    2.0294789    -3.879421   -1.8499421   0.99334901 
    1950          3.9    1.3735676    2.0597409   -3.9092972   -1.8495563   0.90476866 
    2000            4    1.3915296     2.086676   -3.9356995   -1.8490236   0.77920223 
    2050          4.1    1.3771139    2.0650589   -3.9145283   -1.8494695   0.81151822 
    2100          4.2    1.3639722    2.0453521   -3.8950816   -1.8497296   0.85320236 
    2150          4.3    1.3791306     2.068083   -3.9179261   -1.8498431    0.8026288 
    2200          4.4    1.3809805    2.0708569   -3.9209471   -1.8500901   0.81133196 
    2250          4.5     1.370235    2.0547435    -3.904561   -1.8498176   0.90299795 
    2300          4.6    1.3661718    2.0486505   -3.8984938   -1.8498433   0.89889448 
    2350          4.7    1.3619563    2.0423292   -3.8925512   -1.8502221   0.88461276 
    2400          4.8    1.3663458    2.0489114     -3.89907   -1.8501586   0.86669114 
    2450          4.9    1.3722234    2.0577252   -3.9075803   -1.8498552   0.82590656 
    2500            5    1.3803922    2.0699748   -3.9197728   -1.8497981   0.78343552 
Loop time of 8.4668 on 1 procs for 2500 steps with 3375 atoms

Performance: 51022.813 tau/day, 295.271 timesteps/s
99.8% CPU use with 1 MPI tasks x no OpenMP threads

MPI task timing breakdown:
Section |  min time  |  avg time  |  max time  |%varavg| %total
---------------------------------------------------------------
Pair    | 7.4255     | 7.4255     | 7.4255     |   0.0 | 87.70
Neigh   | 0.75079    | 0.75079    | 0.75079    |   0.0 |  8.87
Comm    | 0.10079    | 0.10079    | 0.10079    |   0.0 |  1.19
Output  | 0.00080172 | 0.00080172 | 0.00080172 |   0.0 |  0.01
Modify  | 0.16399    | 0.16399    | 0.16399    |   0.0 |  1.94
Other   |            | 0.02497    |            |       |  0.29

Nlocal:        3375.00 ave        3375 max        3375 min
Histogram: 1 0 0 0 0 0 0 0 0 0
Nghost:        5325.00 ave        5325 max        5325 min
Histogram: 1 0 0 0 0 0 0 0 0 0
Neighs:        153847.0 ave      153847 max      153847 min
Histogram: 1 0 0 0 0 0 0 0 0 0

Total # of neighbors = 153847
Ave neighs/atom = 45.584296
Neighbor list builds = 125
Dangerous builds not checked
variable        diff_accum equal ${diff_accum}+${diff_integ}/(3*${loop_iterations})
variable        diff_accum equal 0.191312300120336+${diff_integ}/(3*${loop_iterations})
variable        diff_accum equal 0.191312300120336+0.686024348685484/(3*${loop_iterations})
variable        diff_accum equal 0.191312300120336+0.686024348685484/(3*25)
unfix           fixVACF
write_data      liquid.T${temp}.rho${rho}.data
write_data      liquid.T1.4.rho${rho}.data
write_data      liquid.T1.4.rho0.61.data
System init for write_data ...
print           "" append log.vacf.T${temp}.rho${rho}.txt screen no
print           "" append log.vacf.T1.4.rho${rho}.txt screen no
print           "" append log.vacf.T1.4.rho0.61.txt screen no

next            loop_counter
jump            SELF loop
clear

pair_style	lj/smooth 2.5 3.0

read_data       liquid.T${temp}.rho${rho}.data
read_data       liquid.T1.4.rho${rho}.data
read_data       liquid.T1.4.rho0.61.data
Reading data file ...
  orthogonal box = (0.0000000 0.0000000 0.0000000) to (17.686748 17.686748 17.686748)
  1 by 1 by 1 MPI processor grid
  reading atoms ...
  3375 atoms
  reading velocities ...
  3375 velocities
  read_data CPU = 0.009 seconds

neighbor	0.3 bin
neigh_modify	every 20 delay 0 check no

fix		1 all nve
timestep        0.002
thermo		50

reset_timestep  0
compute         myVACF all vacf

fix             fixVACF all vector 1 c_myVACF[4]
variable        diff_integ equal dt*trap(f_fixVACF)
variable        curVACF equal c_myVACF[4]

variable        step0 equal step
variable        step0 equal $(v_step0)
variable        step0 equal 0
variable        dtime equal (step-${step0})*dt
variable        dtime equal (step-0)*dt
fix             print_vacf all print 2 "${dtime} ${curVACF} ${diff_integ}" append log.vacf.T${temp}.rho${rho}.txt screen no
fix             print_vacf all print 2 "${dtime} ${curVACF} ${diff_integ}" append log.vacf.T1.4.rho${rho}.txt screen no
fix             print_vacf all print 2 "${dtime} ${curVACF} ${diff_integ}" append log.vacf.T1.4.rho0.61.txt screen no
thermo_style	custom step time temp ke pe etotal press

run             ${loop_length}
run             2500
Neighbor list info ...
  update every 20 steps, delay 0 steps, check no
  max neighbors/atom: 2000, page size: 100000
  master list distance cutoff = 3.3
  ghost atom cutoff = 3.3
  binsize = 1.65, bins = 11 11 11
  1 neighbor lists, perpetual/occasional/extra = 1 0 0
  (1) pair lj/smooth, perpetual
      attributes: half, newton on
      pair build: half/bin/atomonly/newton
      stencil: half/bin/3d
      bin: standard
Per MPI rank memory allocation (min/avg/max) = 3.547 | 3.547 | 3.547 Mbytes
Step Time Temp KinEng PotEng TotEng Press 
       0            0    1.3803922    2.0699748   -3.9197728   -1.8497981   0.78343552 
      50          0.1    1.3692104    2.0532071   -3.9030213   -1.8498142    0.8549214 
     100          0.2     1.373558    2.0597266   -3.9092416    -1.849515   0.86947493 
     150          0.3    1.3611091    2.0410588   -3.8912455   -1.8501868   0.91132758 
     200          0.4    1.3828648    2.0736826   -3.9237193   -1.8500367   0.79933646 
     250          0.5    1.3691127    2.0530605   -3.9036118   -1.8505513   0.83567304 
     300          0.6     1.359174    2.0381569    -3.888597   -1.8504401   0.92385998 
     350          0.7    1.3742268    2.0607294   -3.9108853   -1.8501559   0.85616736 
     400          0.8    1.3574368     2.035552   -3.8859072   -1.8503553   0.93572615 
     450          0.9    1.3934878    2.0896124   -3.9391012   -1.8494888    0.7436553 
     500            1    1.3820091    2.0723994   -3.9222388   -1.8498394   0.81116295 
     550          1.1    1.3978605    2.0961695   -3.9460787   -1.8499091   0.76647155 
     600          1.2    1.3783908    2.0669735   -3.9168039   -1.8498304   0.84994995 
     650          1.3    1.3816467     2.071856   -3.9216008   -1.8497448   0.80976667 
     700          1.4    1.3797597    2.0690263   -3.9187408   -1.8497145   0.82491804 
     750          1.5    1.3646723    2.0464019   -3.8963723   -1.8499704   0.90622319 
     800          1.6    1.3762897    2.0638228   -3.9136845   -1.8498616   0.82989324 
     850          1.7    1.3919522    2.0873096   -3.9374884   -1.8501788   0.76728642 
     900          1.8    1.3859034    2.0782392   -3.9281481   -1.8499089   0.81468485 
     950          1.9    1.3661303    2.0485883    -3.898296   -1.8497077   0.94841412 
    1000            2    1.3673951    2.0504849   -3.9000904   -1.8496055   0.91144519 
    1050          2.1    1.3793779    2.0684538   -3.9185101   -1.8500563   0.84436861 
    1100          2.2    1.3813608    2.0714272   -3.9216859   -1.8502587   0.86794426 
    1150          2.3    1.3654817    2.0476157   -3.8974465   -1.8498309   0.94691872 
    1200          2.4    1.3620188    2.0424228   -3.8921524   -1.8497296   0.96841684 
    1250          2.5    1.3815248    2.0716732   -3.9215375   -1.8498643   0.84486128 
    1300          2.6    1.3869359    2.0797874   -3.9296324    -1.849845   0.80300799 
    1350          2.7    1.3785202    2.0671676   -3.9169626    -1.849795   0.84709149 
    1400          2.8    1.3849494    2.0768086   -3.9267572   -1.8499486   0.82790748 
    1450          2.9    1.3755055     2.062647   -3.9120127   -1.8493657   0.84161929 
    1500            3    1.3749958    2.0618826   -3.9114001   -1.8495175   0.81456019 
    1550          3.1    1.3795064    2.0686465   -3.9182751   -1.8496286   0.79442484 
    1600          3.2    1.3713146    2.0563624   -3.9062204    -1.849858   0.86517474 
    1650          3.3    1.3768794    2.0647072   -3.9140305   -1.8493233   0.84395237 
    1700          3.4     1.375275    2.0623012   -3.9117028   -1.8494016   0.83460581 
    1750          3.5    1.3867343    2.0794851    -3.929412   -1.8499269   0.76071093 
    1800          3.6    1.3672096    2.0502067   -3.9009315   -1.8507248   0.85757388 
    1850          3.7    1.3591136    2.0380663    -3.888065   -1.8499987   0.87882077 
    1900          3.8    1.3853662    2.0774335   -3.9273759   -1.8499424   0.78230638 
    1950          3.9    1.3812555    2.0712694   -3.9208115   -1.8495421   0.83284207 
    2000            4    1.3670131    2.0499121   -3.8993655   -1.8494534   0.90646705 
    2050          4.1    1.3714703     2.056596   -3.9058191   -1.8492231   0.84574739 
    2100          4.2     1.368371    2.0519483   -3.9014757   -1.8495274   0.81228727 
    2150          4.3    1.3755491    2.0627123   -3.9125843    -1.849872   0.81571561 
    2200          4.4    1.3775127    2.0656568   -3.9152039   -1.8495471    0.8225958 
    2250          4.5    1.3681156    2.0515654   -3.9009462   -1.8493808   0.83686877 
    2300          4.6    1.3693248    2.0533786   -3.9032634   -1.8498848   0.81955232 
    2350          4.7    1.3655212    2.0476749    -3.897263   -1.8495882   0.84311066 
    2400          4.8     1.376142    2.0636015   -3.9132455    -1.849644   0.81067051 
    2450          4.9    1.3806858    2.0704151    -3.919802    -1.849387   0.78214962 
    2500            5    1.3681159    2.0515657   -3.9008348    -1.849269   0.84538794 
Loop time of 8.42873 on 1 procs for 2500 steps with 3375 atoms

Performance: 51253.276 tau/day, 296.605 timesteps/s
99.7% CPU use with 1 MPI tasks x no OpenMP threads

MPI task timing breakdown:
Section |  min time  |  avg time  |  max time  |%varavg| %total
---------------------------------------------------------------
Pair    | 7.3919     | 7.3919     | 7.3919     |   0.0 | 87.70
Neigh   | 0.74705    | 0.74705    | 0.74705    |   0.0 |  8.86
Comm    | 0.1005     | 0.1005     | 0.1005     |   0.0 |  1.19
Output  | 0.00078056 | 0.00078056 | 0.00078056 |   0.0 |  0.01
Modify  | 0.16352    | 0.16352    | 0.16352    |   0.0 |  1.94
Other   |            | 0.02496    |            |       |  0.30

Nlocal:        3375.00 ave        3375 max        3375 min
Histogram: 1 0 0 0 0 0 0 0 0 0
Nghost:        5433.00 ave        5433 max        5433 min
Histogram: 1 0 0 0 0 0 0 0 0 0
Neighs:        153832.0 ave      153832 max      153832 min
Histogram: 1 0 0 0 0 0 0 0 0 0

Total # of neighbors = 153832
Ave neighs/atom = 45.579852
Neighbor list builds = 125
Dangerous builds not checked
variable        diff_accum equal ${diff_accum}+${diff_integ}/(3*${loop_iterations})
variable        diff_accum equal 0.200459291436142+${diff_integ}/(3*${loop_iterations})
variable        diff_accum equal 0.200459291436142+0.690316140976943/(3*${loop_iterations})
variable        diff_accum equal 0.200459291436142+0.690316140976943/(3*25)
unfix           fixVACF
write_data      liquid.T${temp}.rho${rho}.data
write_data      liquid.T1.4.rho${rho}.data
write_data      liquid.T1.4.rho0.61.data
System init for write_data ...
print           "" append log.vacf.T${temp}.rho${rho}.txt screen no
print           "" append log.vacf.T1.4.rho${rho}.txt screen no
print           "" append log.vacf.T1.4.rho0.61.txt screen no

next            loop_counter
jump            SELF loop
clear

pair_style	lj/smooth 2.5 3.0

read_data       liquid.T${temp}.rho${rho}.data
read_data       liquid.T1.4.rho${rho}.data
read_data       liquid.T1.4.rho0.61.data
Reading data file ...
  orthogonal box = (0.0000000 0.0000000 0.0000000) to (17.686748 17.686748 17.686748)
  1 by 1 by 1 MPI processor grid
  reading atoms ...
  3375 atoms
  reading velocities ...
  3375 velocities
  read_data CPU = 0.009 seconds

neighbor	0.3 bin
neigh_modify	every 20 delay 0 check no

fix		1 all nve
timestep        0.002
thermo		50

reset_timestep  0
compute         myVACF all vacf

fix             fixVACF all vector 1 c_myVACF[4]
variable        diff_integ equal dt*trap(f_fixVACF)
variable        curVACF equal c_myVACF[4]

variable        step0 equal step
variable        step0 equal $(v_step0)
variable        step0 equal 0
variable        dtime equal (step-${step0})*dt
variable        dtime equal (step-0)*dt
fix             print_vacf all print 2 "${dtime} ${curVACF} ${diff_integ}" append log.vacf.T${temp}.rho${rho}.txt screen no
fix             print_vacf all print 2 "${dtime} ${curVACF} ${diff_integ}" append log.vacf.T1.4.rho${rho}.txt screen no
fix             print_vacf all print 2 "${dtime} ${curVACF} ${diff_integ}" append log.vacf.T1.4.rho0.61.txt screen no
thermo_style	custom step time temp ke pe etotal press

run             ${loop_length}
run             2500
Neighbor list info ...
  update every 20 steps, delay 0 steps, check no
  max neighbors/atom: 2000, page size: 100000
  master list distance cutoff = 3.3
  ghost atom cutoff = 3.3
  binsize = 1.65, bins = 11 11 11
  1 neighbor lists, perpetual/occasional/extra = 1 0 0
  (1) pair lj/smooth, perpetual
      attributes: half, newton on
      pair build: half/bin/atomonly/newton
      stencil: half/bin/3d
      bin: standard
Per MPI rank memory allocation (min/avg/max) = 3.552 | 3.552 | 3.552 Mbytes
Step Time Temp KinEng PotEng TotEng Press 
       0            0    1.3681159    2.0515657   -3.9008348    -1.849269   0.84538794 
      50          0.1    1.3896454    2.0838505   -3.9331004   -1.8492499   0.76959646 
     100          0.2    1.3674062    2.0505015   -3.9004626    -1.849961   0.89275177 
     150          0.3    1.3748334     2.061639   -3.9115361   -1.8498971   0.87960523 
     200          0.4    1.3757334    2.0629886   -3.9128487     -1.84986   0.86356034 
     250          0.5    1.3798387    2.0691447   -3.9189486   -1.8498038   0.85561115 
     300          0.6    1.3597428    2.0390099   -3.8891334   -1.8501236   0.94811766 
     350          0.7    1.3815985    2.0717837   -3.9219189   -1.8501352    0.7818576 
     400          0.8    1.3859444    2.0783006   -3.9282629   -1.8499623   0.72958287 
     450          0.9    1.3694247    2.0535285   -3.9035699   -1.8500414   0.80729895 
     500            1    1.3692557     2.053275   -3.9030784   -1.8498035   0.82018615 
     550          1.1    1.3542673    2.0307991   -3.8805906   -1.8497915   0.89970342 
     600          1.2    1.3778372    2.0661435   -3.9154668   -1.8493233   0.78944756 
     650          1.3    1.3666513    2.0493696   -3.8985758   -1.8492062   0.82907922 
     700          1.4    1.3774724    2.0655963   -3.9152638   -1.8496674   0.76732289 
     750          1.5    1.3766333    2.0643381   -3.9138568   -1.8495186   0.79315055 
     800          1.6    1.3525427    2.0282129   -3.8778586   -1.8496457   0.89726455 
     850          1.7     1.378196    2.0666815   -3.9165823   -1.8499008   0.76602637 
     900          1.8    1.3712212    2.0562224   -3.9059265   -1.8497041   0.82793921 
     950          1.9    1.3672327    2.0502413    -3.900254   -1.8500127   0.92151328 
    1000            2    1.3680256    2.0514304   -3.9016916   -1.8502612   0.91367597 
    1050          2.1    1.3770096    2.0649024   -3.9149444    -1.850042   0.83107824 
    1100          2.2    1.3742143    2.0607107   -3.9108949   -1.8501843   0.83828261 
    1150          2.3    1.3609941    2.0408862   -3.8907986   -1.8499123   0.87990176 
    1200          2.4    1.3816018    2.0717887   -3.9217821   -1.8499933   0.77053559 
    1250          2.5    1.3571095    2.0350612   -3.8847111   -1.8496499   0.86830789 
    1300          2.6    1.3694132    2.0535112   -3.9033856   -1.8498745   0.84764049 
    1350          2.7     1.364166    2.0456426   -3.8955739   -1.8499312   0.84797025 
    1400          2.8    1.3603297    2.0398899   -3.8895015   -1.8496116   0.88711854 
    1450          2.9    1.3643016    2.0458461    -3.895842   -1.8499959   0.88611576 
    1500            3    1.3802513    2.0697635   -3.9196946    -1.849931   0.76353863 
    1550          3.1    1.3876524    2.0808619   -3.9304248   -1.8495629   0.70671074 
    1600          3.2    1.3637207     2.044975   -3.8951231   -1.8501481   0.81380205 
    1650          3.3    1.3743481    2.0609113     -3.91109   -1.8501788   0.79662587 
    1700          3.4    1.3669123     2.049761   -3.9005413   -1.8507804   0.84995558 
    1750          3.5    1.3674191     2.050521   -3.9010819   -1.8505609    0.8566887 
    1800          3.6    1.3757446    2.0630055   -3.9134681   -1.8504625    0.8456582 
    1850          3.7    1.3706786    2.0554087   -3.9059422   -1.8505334   0.85475428 
    1900          3.8     1.375403    2.0624932   -3.9125169   -1.8500237   0.84612013 
    1950          3.9    1.3736731    2.0598991   -3.9094971    -1.849598   0.85516943 
    2000            4    1.3812472    2.0712569   -3.9210438   -1.8497869   0.82916407 
    2050          4.1    1.3864355     2.079037     -3.92856   -1.8495229   0.82561517 
    2100          4.2    1.3866786    2.0794016   -3.9285934   -1.8491918   0.81855225 
    2150          4.3    1.3706616    2.0553832   -3.9051595   -1.8497763   0.82390359 
    2200          4.4    1.3834221    2.0745183   -3.9240759   -1.8495576   0.77686798 
    2250          4.5    1.3528534    2.0286789    -3.878742   -1.8500631   0.92651795 
    2300          4.6    1.3769578    2.0648247   -3.9143716   -1.8495468   0.83084043 
    2350          4.7    1.3790922    2.0680254   -3.9178679   -1.8498424   0.86107254 
    2400          4.8    1.3786577    2.0673738   -3.9169514   -1.8495776   0.86519406 
    2450          4.9    1.3811141    2.0710573   -3.9206727   -1.8496154   0.81231976 
    2500            5    1.3952485    2.0922527   -3.9417089   -1.8494562   0.73538253 
Loop time of 8.45231 on 1 procs for 2500 steps with 3375 atoms

Performance: 51110.316 tau/day, 295.777 timesteps/s
99.7% CPU use with 1 MPI tasks x no OpenMP threads

MPI task timing breakdown:
Section |  min time  |  avg time  |  max time  |%varavg| %total
---------------------------------------------------------------
Pair    | 7.4095     | 7.4095     | 7.4095     |   0.0 | 87.66
Neigh   | 0.75359    | 0.75359    | 0.75359    |   0.0 |  8.92
Comm    | 0.10061    | 0.10061    | 0.10061    |   0.0 |  1.19
Output  | 0.0008005  | 0.0008005  | 0.0008005  |   0.0 |  0.01
Modify  | 0.1629     | 0.1629     | 0.1629     |   0.0 |  1.93
Other   |            | 0.02493    |            |       |  0.29

Nlocal:        3375.00 ave        3375 max        3375 min
Histogram: 1 0 0 0 0 0 0 0 0 0
Nghost:        5338.00 ave        5338 max        5338 min
Histogram: 1 0 0 0 0 0 0 0 0 0
Neighs:        153614.0 ave      153614 max      153614 min
Histogram: 1 0 0 0 0 0 0 0 0 0

Total # of neighbors = 153614
Ave neighs/atom = 45.515259
Neighbor list builds = 125
Dangerous builds not checked
variable        diff_accum equal ${diff_accum}+${diff_integ}/(3*${loop_iterations})
variable        diff_accum equal 0.209663506649168+${diff_integ}/(3*${loop_iterations})
variable        diff_accum equal 0.209663506649168+0.587015396417425/(3*${loop_iterations})
variable        diff_accum equal 0.209663506649168+0.587015396417425/(3*25)
unfix           fixVACF
write_data      liquid.T${temp}.rho${rho}.data
write_data      liquid.T1.4.rho${rho}.data
write_data      liquid.T1.4.rho0.61.data
System init for write_data ...
print           "" append log.vacf.T${temp}.rho${rho}.txt screen no
print           "" append log.vacf.T1.4.rho${rho}.txt screen no
print           "" append log.vacf.T1.4.rho0.61.txt screen no

next            loop_counter
jump            SELF loop

print           "Diffusivity estimate (GK): ${diff_accum}" append log.vacf.T${temp}.rho${rho}.txt
print           "Diffusivity estimate (GK): ${diff_accum}" append log.vacf.T1.4.rho${rho}.txt
print           "Diffusivity estimate (GK): ${diff_accum}" append log.vacf.T1.4.rho0.61.txt
Diffusivity estimate (GK): 0.2174903786014
Total wall time: 0:03:33
