shell           rm log.vacf.T${temp}.rho${rho}.txt
shell           rm log.vacf.T1.5.rho${rho}.txt
shell           rm log.vacf.T1.5.rho0.61.txt
WARNING: Shell command 'rm' failed with error 'No such file or directory' (../input.cpp:1234)
units		lj
atom_style	atomic

variable        loop_counter loop ${loop_iterations}
variable        loop_counter loop 25
variable        diff_accum equal 0

label           loop
clear

pair_style	lj/smooth 2.5 3.0

read_data       liquid.T${temp}.rho${rho}.data
read_data       liquid.T1.5.rho${rho}.data
read_data       liquid.T1.5.rho0.61.data
Reading data file ...
  orthogonal box = (0.0000000 0.0000000 0.0000000) to (17.686748 17.686748 17.686748)
  1 by 1 by 1 MPI processor grid
  reading atoms ...
  3375 atoms
  reading velocities ...
  3375 velocities
  read_data CPU = 0.010 seconds

neighbor	0.3 bin
neigh_modify	every 20 delay 0 check no

fix		1 all nve
timestep        0.002
thermo		50

reset_timestep  0
compute         myVACF all vacf

fix             fixVACF all vector 1 c_myVACF[4]
variable        diff_integ equal dt*trap(f_fixVACF)
variable        curVACF equal c_myVACF[4]

variable        step0 equal step
variable        step0 equal $(v_step0)
variable        step0 equal 0
variable        dtime equal (step-${step0})*dt
variable        dtime equal (step-0)*dt
fix             print_vacf all print 2 "${dtime} ${curVACF} ${diff_integ}" append log.vacf.T${temp}.rho${rho}.txt screen no
fix             print_vacf all print 2 "${dtime} ${curVACF} ${diff_integ}" append log.vacf.T1.5.rho${rho}.txt screen no
fix             print_vacf all print 2 "${dtime} ${curVACF} ${diff_integ}" append log.vacf.T1.5.rho0.61.txt screen no
thermo_style	custom step time temp ke pe etotal press

run             ${loop_length}
run             2500
Neighbor list info ...
  update every 20 steps, delay 0 steps, check no
  max neighbors/atom: 2000, page size: 100000
  master list distance cutoff = 3.3
  ghost atom cutoff = 3.3
  binsize = 1.65, bins = 11 11 11
  1 neighbor lists, perpetual/occasional/extra = 1 0 0
  (1) pair lj/smooth, perpetual
      attributes: half, newton on
      pair build: half/bin/atomonly/newton
      stencil: half/bin/3d
      bin: standard
Per MPI rank memory allocation (min/avg/max) = 3.551 | 3.551 | 3.551 Mbytes
Step Time Temp KinEng PotEng TotEng Press 
       0            0    1.4955812    2.2427071   -3.8478122    -1.605105    1.0415995 
      50          0.1    1.5015517    2.2516602   -3.8568431    -1.605183    1.0860163 
     100          0.2    1.5035031    2.2545865   -3.8597425    -1.605156    1.1053528 
     150          0.3    1.4974417     2.245497   -3.8511713   -1.6056743    1.1308153 
     200          0.4    1.5020572    2.2524182   -3.8582846   -1.6058664    1.1233359 
     250          0.5     1.506033    2.2583802   -3.8636628   -1.6052826    1.0903352 
     300          0.6    1.4926053    2.2382446   -3.8436217   -1.6053771    1.1328598 
     350          0.7     1.480065    2.2194397   -3.8250487    -1.605609    1.1849521 
     400          0.8    1.4934614    2.2395283   -3.8447767   -1.6052484    1.1033711 
     450          0.9    1.4880735    2.2314489   -3.8370789   -1.6056301    1.1344338 
     500            1    1.4845858    2.2262189   -3.8317802   -1.6055613    1.1652617 
     550          1.1    1.4909871    2.2358179   -3.8417196   -1.6059017    1.1063592 
     600          1.2    1.5071532      2.26006   -3.8656827   -1.6056228    1.0215442 
     650          1.3    1.4903108    2.2348038   -3.8403457   -1.6055419     1.102225 
     700          1.4    1.5066406    2.2592912   -3.8650924   -1.6058012    1.0314779 
     750          1.5    1.4878297    2.2310833   -3.8372014   -1.6061182    1.1203721 
     800          1.6    1.4868935    2.2296794   -3.8358195     -1.60614    1.1381828 
     850          1.7    1.5020406    2.2523933    -3.858487   -1.6060937    1.0975478 
     900          1.8    1.5046127    2.2562503   -3.8625847   -1.6063344    1.1277987 
     950          1.9    1.4975815    2.2457066   -3.8515805   -1.6058738    1.1351347 
    1000            2    1.5059323    2.2582292    -3.864585   -1.6063558    1.1111766 
    1050          2.1    1.5021974    2.2526284   -3.8588109   -1.6061825    1.1073999 
    1100          2.2    1.4913581    2.2363743   -3.8425862    -1.606212    1.1422824 
    1150          2.3     1.505518    2.2576078   -3.8633642   -1.6057564     1.098078 
    1200          2.4    1.4938761    2.2401502   -3.8458107   -1.6056605    1.1404734 
    1250          2.5    1.5054358    2.2574846   -3.8634021   -1.6059175    1.0750486 
    1300          2.6    1.5000541    2.2494145   -3.8550598   -1.6056453    1.1059076 
    1350          2.7     1.505933    2.2582301   -3.8640967   -1.6058666    1.0900339 
    1400          2.8    1.5056243    2.2577673   -3.8634922   -1.6057249    1.1015591 
    1450          2.9    1.5063273    2.2588214   -3.8642525   -1.6054311    1.0921349 
    1500            3     1.493405    2.2394437   -3.8453004   -1.6058567    1.1614144 
    1550          3.1     1.497443     2.245499   -3.8516739   -1.6061749    1.1242649 
    1600          3.2    1.4914606    2.2365281    -3.842352   -1.6058239    1.1259952 
    1650          3.3    1.5043144     2.255803    -3.861507   -1.6057039    1.0445618 
    1700          3.4     1.497245    2.2452021   -3.8511339   -1.6059318    1.0643933 
    1750          3.5    1.4891641    2.2330844   -3.8391811   -1.6060968    1.1183113 
    1800          3.6    1.4949125    2.2417043   -3.8477915   -1.6060872    1.1335682 
    1850          3.7    1.5000622    2.2494267   -3.8555319   -1.6061053    1.1444202 
    1900          3.8    1.4845954    2.2262332   -3.8323456   -1.6061124    1.2123791 
    1950          3.9    1.5069752    2.2597931   -3.8662122   -1.6064192    1.1139224 
    2000            4     1.504966    2.2567802   -3.8630498   -1.6062696    1.0841698 
    2050          4.1    1.4950136     2.241856   -3.8477282   -1.6058722    1.1321077 
    2100          4.2    1.5283614    2.2918628   -3.8977603   -1.6058975   0.98291492 
    2150          4.3    1.4873973    2.2304349   -3.8359725   -1.6055377     1.197515 
    2200          4.4    1.4971504    2.2450602   -3.8507949   -1.6057347    1.1388717 
    2250          4.5     1.509438    2.2634862   -3.8691408   -1.6056546    1.0799418 
    2300          4.6    1.4879593    2.2312776   -3.8375866    -1.606309    1.2106789 
    2350          4.7     1.508563     2.262174   -3.8681748   -1.6060007    1.0700847 
    2400          4.8    1.4982566    2.2467191   -3.8526664   -1.6059474    1.0948359 
    2450          4.9     1.503984    2.2553076   -3.8616035   -1.6062958    1.0882155 
    2500            5      1.50337    2.2543868   -3.8606702   -1.6062833    1.0643126 
Loop time of 8.52558 on 1 procs for 2500 steps with 3375 atoms

Performance: 50671.061 tau/day, 293.235 timesteps/s
99.7% CPU use with 1 MPI tasks x no OpenMP threads

MPI task timing breakdown:
Section |  min time  |  avg time  |  max time  |%varavg| %total
---------------------------------------------------------------
Pair    | 7.4748     | 7.4748     | 7.4748     |   0.0 | 87.68
Neigh   | 0.75528    | 0.75528    | 0.75528    |   0.0 |  8.86
Comm    | 0.10254    | 0.10254    | 0.10254    |   0.0 |  1.20
Output  | 0.00081245 | 0.00081245 | 0.00081245 |   0.0 |  0.01
Modify  | 0.16736    | 0.16736    | 0.16736    |   0.0 |  1.96
Other   |            | 0.02474    |            |       |  0.29

Nlocal:        3375.00 ave        3375 max        3375 min
Histogram: 1 0 0 0 0 0 0 0 0 0
Nghost:        5357.00 ave        5357 max        5357 min
Histogram: 1 0 0 0 0 0 0 0 0 0
Neighs:        153914.0 ave      153914 max      153914 min
Histogram: 1 0 0 0 0 0 0 0 0 0

Total # of neighbors = 153914
Ave neighs/atom = 45.604148
Neighbor list builds = 125
Dangerous builds not checked
variable        diff_accum equal ${diff_accum}+${diff_integ}/(3*${loop_iterations})
variable        diff_accum equal 0+${diff_integ}/(3*${loop_iterations})
variable        diff_accum equal 0+0.723524607770357/(3*${loop_iterations})
variable        diff_accum equal 0+0.723524607770357/(3*25)
unfix           fixVACF
write_data      liquid.T${temp}.rho${rho}.data
write_data      liquid.T1.5.rho${rho}.data
write_data      liquid.T1.5.rho0.61.data
System init for write_data ...
print           "" append log.vacf.T${temp}.rho${rho}.txt screen no
print           "" append log.vacf.T1.5.rho${rho}.txt screen no
print           "" append log.vacf.T1.5.rho0.61.txt screen no

next            loop_counter
jump            SELF loop
clear

pair_style	lj/smooth 2.5 3.0

read_data       liquid.T${temp}.rho${rho}.data
read_data       liquid.T1.5.rho${rho}.data
read_data       liquid.T1.5.rho0.61.data
Reading data file ...
  orthogonal box = (0.0000000 0.0000000 0.0000000) to (17.686748 17.686748 17.686748)
  1 by 1 by 1 MPI processor grid
  reading atoms ...
  3375 atoms
  reading velocities ...
  3375 velocities
  read_data CPU = 0.009 seconds

neighbor	0.3 bin
neigh_modify	every 20 delay 0 check no

fix		1 all nve
timestep        0.002
thermo		50

reset_timestep  0
compute         myVACF all vacf

fix             fixVACF all vector 1 c_myVACF[4]
variable        diff_integ equal dt*trap(f_fixVACF)
variable        curVACF equal c_myVACF[4]

variable        step0 equal step
variable        step0 equal $(v_step0)
variable        step0 equal 0
variable        dtime equal (step-${step0})*dt
variable        dtime equal (step-0)*dt
fix             print_vacf all print 2 "${dtime} ${curVACF} ${diff_integ}" append log.vacf.T${temp}.rho${rho}.txt screen no
fix             print_vacf all print 2 "${dtime} ${curVACF} ${diff_integ}" append log.vacf.T1.5.rho${rho}.txt screen no
fix             print_vacf all print 2 "${dtime} ${curVACF} ${diff_integ}" append log.vacf.T1.5.rho0.61.txt screen no
thermo_style	custom step time temp ke pe etotal press

run             ${loop_length}
run             2500
Neighbor list info ...
  update every 20 steps, delay 0 steps, check no
  max neighbors/atom: 2000, page size: 100000
  master list distance cutoff = 3.3
  ghost atom cutoff = 3.3
  binsize = 1.65, bins = 11 11 11
  1 neighbor lists, perpetual/occasional/extra = 1 0 0
  (1) pair lj/smooth, perpetual
      attributes: half, newton on
      pair build: half/bin/atomonly/newton
      stencil: half/bin/3d
      bin: standard
Per MPI rank memory allocation (min/avg/max) = 3.546 | 3.546 | 3.546 Mbytes
Step Time Temp KinEng PotEng TotEng Press 
       0            0      1.50337    2.2543868   -3.8606702   -1.6062833    1.0643126 
      50          0.1    1.5123595    2.2678671   -3.8740283   -1.6061612    1.0463439 
     100          0.2    1.4893419    2.2333509   -3.8393817   -1.6060308    1.2012693 
     150          0.3    1.4852629    2.2272342   -3.8337148   -1.6064806    1.2357639 
     200          0.4    1.4899429    2.2342522   -3.8405985   -1.6063464    1.2117551 
     250          0.5    1.5017089     2.251896   -3.8579894   -1.6060935    1.1367502 
     300          0.6    1.4975099    2.2455992   -3.8518666   -1.6062674    1.1192645 
     350          0.7    1.4972763     2.245249   -3.8511116   -1.6058625    1.1289137 
     400          0.8     1.492007    2.2373474    -3.843257   -1.6059097    1.1438292 
     450          0.9     1.483304    2.2242968   -3.8303836   -1.6060868    1.1736704 
     500            1    1.5195747    2.2786868   -3.8845315   -1.6058447    1.0494625 
     550          1.1    1.5148595     2.271616    -3.877135    -1.605519    1.0598687 
     600          1.2    1.4822524    2.2227199   -3.8280415   -1.6053216    1.2231401 
     650          1.3    1.4960295    2.2433793   -3.8490027   -1.6056234    1.1524536 
     700          1.4    1.4975178    2.2456111   -3.8515108   -1.6058997    1.0922615 
     750          1.5    1.5025083    2.2530946   -3.8589803   -1.6058856    1.0415438 
     800          1.6    1.4966477    2.2443064   -3.8503883   -1.6060818    1.0711667 
     850          1.7    1.5204234    2.2799594   -3.8857975   -1.6058381   0.98218402 
     900          1.8    1.5104684    2.2650313   -3.8703342   -1.6053029   0.98546208 
     950          1.9    1.4976464    2.2458039   -3.8513892   -1.6055852    1.0581987 
    1000            2    1.4966024    2.2442385   -3.8498529   -1.6056144    1.0691785 
    1050          2.1    1.4930162    2.2388608     -3.84417   -1.6053093      1.08787 
    1100          2.2    1.4825666     2.223191    -3.828763    -1.605572    1.1607885 
    1150          2.3     1.494278    2.2407529   -3.8464608    -1.605708    1.1145339 
    1200          2.4    1.4986163    2.2472584    -3.853011   -1.6057526    1.0662954 
    1250          2.5    1.5101623    2.2645722   -3.8703054   -1.6057332    1.0195219 
    1300          2.6    1.4979734    2.2462943   -3.8514154   -1.6051211    1.0875466 
    1350          2.7      1.50723    2.2601751   -3.8655344   -1.6053593    1.0799488 
    1400          2.8    1.4919894     2.237321   -3.8434071    -1.606086    1.1899364 
    1450          2.9    1.4916636    2.2368325   -3.8427806   -1.6059481    1.1804607 
    1500            3    1.5007537    2.2504636   -3.8560771   -1.6056136    1.1088122 
    1550          3.1    1.4854004    2.2274404    -3.833206   -1.6057656    1.1870011 
    1600          3.2    1.4927517    2.2384641   -3.8444272    -1.605963    1.1335083 
    1650          3.3    1.5106191    2.2652573   -3.8710291   -1.6057717    1.0419593 
    1700          3.4    1.5076197    2.2607594   -3.8664424    -1.605683    1.0564078 
    1750          3.5    1.5089257    2.2627179   -3.8681507   -1.6054328    1.0663217 
    1800          3.6    1.5113283    2.2663207   -3.8717546   -1.6054339      1.07772 
    1850          3.7    1.5055846    2.2577077   -3.8634755   -1.6057678    1.1282808 
    1900          3.8     1.500658    2.2503201   -3.8559677   -1.6056476    1.1361609 
    1950          3.9     1.506629     2.259274    -3.865056   -1.6057821    1.0585992 
    2000            4    1.5006466     2.250303   -3.8563025   -1.6059996    1.0874434 
    2050          4.1    1.5096376    2.2637855   -3.8696389   -1.6058535    1.0731234 
    2100          4.2    1.4898298    2.2340826   -3.8400439   -1.6059613    1.1746369 
    2150          4.3    1.5030371    2.2538877   -3.8596032   -1.6057156    1.1065539 
    2200          4.4    1.5067055    2.2593886   -3.8645917   -1.6052031    1.0847914 
    2250          4.5     1.494277    2.2407514   -3.8461835   -1.6054321    1.1278864 
    2300          4.6    1.4910012    2.2358391   -3.8415188   -1.6056797    1.0730119 
    2350          4.7    1.4871018    2.2299918   -3.8358064   -1.6058146    1.1185372 
    2400          4.8    1.5074815    2.2605522   -3.8660119   -1.6054597     1.074042 
    2450          4.9    1.5007617    2.2504755   -3.8559318   -1.6054563    1.1534018 
    2500            5    1.4865483    2.2291618   -3.8350233   -1.6058615    1.2172203 
Loop time of 8.74807 on 1 procs for 2500 steps with 3375 atoms

Performance: 49382.314 tau/day, 285.777 timesteps/s
99.7% CPU use with 1 MPI tasks x no OpenMP threads

MPI task timing breakdown:
Section |  min time  |  avg time  |  max time  |%varavg| %total
---------------------------------------------------------------
Pair    | 7.6972     | 7.6972     | 7.6972     |   0.0 | 87.99
Neigh   | 0.75463    | 0.75463    | 0.75463    |   0.0 |  8.63
Comm    | 0.10287    | 0.10287    | 0.10287    |   0.0 |  1.18
Output  | 0.00078961 | 0.00078961 | 0.00078961 |   0.0 |  0.01
Modify  | 0.16723    | 0.16723    | 0.16723    |   0.0 |  1.91
Other   |            | 0.02536    |            |       |  0.29

Nlocal:        3375.00 ave        3375 max        3375 min
Histogram: 1 0 0 0 0 0 0 0 0 0
Nghost:        5316.00 ave        5316 max        5316 min
Histogram: 1 0 0 0 0 0 0 0 0 0
Neighs:        153614.0 ave      153614 max      153614 min
Histogram: 1 0 0 0 0 0 0 0 0 0

Total # of neighbors = 153614
Ave neighs/atom = 45.515259
Neighbor list builds = 125
Dangerous builds not checked
variable        diff_accum equal ${diff_accum}+${diff_integ}/(3*${loop_iterations})
variable        diff_accum equal 0.00964699477027143+${diff_integ}/(3*${loop_iterations})
variable        diff_accum equal 0.00964699477027143+0.634780087738978/(3*${loop_iterations})
variable        diff_accum equal 0.00964699477027143+0.634780087738978/(3*25)
unfix           fixVACF
write_data      liquid.T${temp}.rho${rho}.data
write_data      liquid.T1.5.rho${rho}.data
write_data      liquid.T1.5.rho0.61.data
System init for write_data ...
print           "" append log.vacf.T${temp}.rho${rho}.txt screen no
print           "" append log.vacf.T1.5.rho${rho}.txt screen no
print           "" append log.vacf.T1.5.rho0.61.txt screen no

next            loop_counter
jump            SELF loop
clear

pair_style	lj/smooth 2.5 3.0

read_data       liquid.T${temp}.rho${rho}.data
read_data       liquid.T1.5.rho${rho}.data
read_data       liquid.T1.5.rho0.61.data
Reading data file ...
  orthogonal box = (0.0000000 0.0000000 0.0000000) to (17.686748 17.686748 17.686748)
  1 by 1 by 1 MPI processor grid
  reading atoms ...
  3375 atoms
  reading velocities ...
  3375 velocities
  read_data CPU = 0.009 seconds

neighbor	0.3 bin
neigh_modify	every 20 delay 0 check no

fix		1 all nve
timestep        0.002
thermo		50

reset_timestep  0
compute         myVACF all vacf

fix             fixVACF all vector 1 c_myVACF[4]
variable        diff_integ equal dt*trap(f_fixVACF)
variable        curVACF equal c_myVACF[4]

variable        step0 equal step
variable        step0 equal $(v_step0)
variable        step0 equal 0
variable        dtime equal (step-${step0})*dt
variable        dtime equal (step-0)*dt
fix             print_vacf all print 2 "${dtime} ${curVACF} ${diff_integ}" append log.vacf.T${temp}.rho${rho}.txt screen no
fix             print_vacf all print 2 "${dtime} ${curVACF} ${diff_integ}" append log.vacf.T1.5.rho${rho}.txt screen no
fix             print_vacf all print 2 "${dtime} ${curVACF} ${diff_integ}" append log.vacf.T1.5.rho0.61.txt screen no
thermo_style	custom step time temp ke pe etotal press

run             ${loop_length}
run             2500
Neighbor list info ...
  update every 20 steps, delay 0 steps, check no
  max neighbors/atom: 2000, page size: 100000
  master list distance cutoff = 3.3
  ghost atom cutoff = 3.3
  binsize = 1.65, bins = 11 11 11
  1 neighbor lists, perpetual/occasional/extra = 1 0 0
  (1) pair lj/smooth, perpetual
      attributes: half, newton on
      pair build: half/bin/atomonly/newton
      stencil: half/bin/3d
      bin: standard
Per MPI rank memory allocation (min/avg/max) = 3.542 | 3.542 | 3.542 Mbytes
Step Time Temp KinEng PotEng TotEng Press 
       0            0    1.4865483    2.2291618   -3.8350233   -1.6058615    1.2172203 
      50          0.1    1.5124599    2.2680176   -3.8738367   -1.6058191    1.0695207 
     100          0.2    1.5121631    2.2675726   -3.8733541   -1.6057814    1.0429109 
     150          0.3    1.4946666    2.2413355   -3.8470764   -1.6057409    1.0892827 
     200          0.4    1.5024451    2.2529999    -3.858699   -1.6056991    1.0541905 
     250          0.5    1.4962697    2.2437395   -3.8493619   -1.6056224    1.0871786 
     300          0.6    1.4992505    2.2482094   -3.8536088   -1.6053994    1.0882854 
     350          0.7    1.5035336    2.2546321   -3.8602959   -1.6056638    1.0461864 
     400          0.8    1.4944443    2.2410023   -3.8464347   -1.6054324    1.1044543 
     450          0.9    1.5126999    2.2683776   -3.8737216    -1.605344    1.0228506 
     500            1    1.4940735    2.2404462   -3.8460202    -1.605574     1.082179 
     550          1.1    1.5080748    2.2614419   -3.8672311   -1.6057892    1.0194402 
     600          1.2    1.5119463    2.2672474   -3.8729661   -1.6057187   0.98641106 
     650          1.3    1.5053832    2.2574057   -3.8631323   -1.6057266   0.98133993 
     700          1.4    1.4895201    2.2336182   -3.8392764   -1.6056582    1.1063215 
     750          1.5    1.4955024     2.242589   -3.8484383   -1.6058493    1.1156754 
     800          1.6    1.4904267    2.2349777   -3.8407734   -1.6057957    1.1367032 
     850          1.7    1.4871343    2.2300405   -3.8361149   -1.6060744    1.1515997 
     900          1.8    1.4960672    2.2434358   -3.8492682   -1.6058324    1.1046394 
     950          1.9    1.4988556    2.2476172   -3.8533171   -1.6056999    1.0773465 
    1000            2    1.5001203    2.2495137   -3.8552388   -1.6057251    1.0776699 
    1050          2.1    1.4992437    2.2481992   -3.8537327   -1.6055335    1.0356313 
    1100          2.2    1.4809373    2.2207477   -3.8270861   -1.6063383    1.1150465 
    1150          2.3    1.4928811    2.2386581   -3.8450948   -1.6064367    1.0781945 
    1200          2.4    1.4807582    2.2204792   -3.8268849   -1.6064057    1.1504977 
    1250          2.5    1.4915966     2.236732   -3.8429751   -1.6062431    1.1248545 
    1300          2.6    1.5133895    2.2694116   -3.8755324   -1.6061208    1.0204667 
    1350          2.7    1.5080332    2.2613796   -3.8670351   -1.6056555    1.0385597 
    1400          2.8    1.4973828    2.2454088   -3.8511413   -1.6057325    1.0895215 
    1450          2.9    1.5216096    2.2817382   -3.8870592    -1.605321   0.95978988 
    1500            3    1.4845327    2.2261393    -3.832292   -1.6061527    1.1460497 
    1550          3.1    1.5019689    2.2522858   -3.8581517   -1.6058659     1.076632 
    1600          3.2    1.4957082    2.2428975   -3.8485828   -1.6056853    1.1287659 
    1650          3.3    1.5010293    2.2508768   -3.8567105   -1.6058337     1.115923 
    1700          3.4    1.5255093     2.287586   -3.8935521   -1.6059661    1.0256683 
    1750          3.5    1.4836159    2.2247644   -3.8308664    -1.606102    1.1809419 
    1800          3.6     1.502127    2.2525229   -3.8585363   -1.6060134    1.0280283 
    1850          3.7    1.4902968    2.2347828   -3.8404526   -1.6056698    1.0914038 
    1900          3.8     1.510635     2.265281   -3.8707291    -1.605448    1.0212921 
    1950          3.9    1.5048136    2.2565516   -3.8616719   -1.6051203      1.07132 
    2000            4    1.4912631    2.2362318   -3.8417928    -1.605561    1.0879044 
    2050          4.1    1.5036584    2.2548194   -3.8605221   -1.6057028     1.059581 
    2100          4.2    1.5047646    2.2564782   -3.8620466   -1.6055684    1.0752744 
    2150          4.3    1.4983658    2.2468828   -3.8516684   -1.6047857    1.0847752 
    2200          4.4    1.5000313    2.2493803   -3.8547477   -1.6053674    1.0662583 
    2250          4.5    1.5016974    2.2518786   -3.8577414   -1.6058627    1.0376137 
    2300          4.6    1.4903429     2.234852   -3.8407629   -1.6059108    1.1026056 
    2350          4.7    1.4926999    2.2383864   -3.8440264     -1.60564    1.1436479 
    2400          4.8    1.4876094     2.230753   -3.8367299    -1.605977    1.1701327 
    2450          4.9    1.5007103    2.2503985   -3.8560913   -1.6056928    1.0752492 
    2500            5    1.5121981     2.267625   -3.8732473   -1.6056223    1.0376704 
Loop time of 8.54618 on 1 procs for 2500 steps with 3375 atoms

Performance: 50548.915 tau/day, 292.528 timesteps/s
99.7% CPU use with 1 MPI tasks x no OpenMP threads

MPI task timing breakdown:
Section |  min time  |  avg time  |  max time  |%varavg| %total
---------------------------------------------------------------
Pair    | 7.5011     | 7.5011     | 7.5011     |   0.0 | 87.77
Neigh   | 0.75063    | 0.75063    | 0.75063    |   0.0 |  8.78
Comm    | 0.10278    | 0.10278    | 0.10278    |   0.0 |  1.20
Output  | 0.00080904 | 0.00080904 | 0.00080904 |   0.0 |  0.01
Modify  | 0.16576    | 0.16576    | 0.16576    |   0.0 |  1.94
Other   |            | 0.02513    |            |       |  0.29

Nlocal:        3375.00 ave        3375 max        3375 min
Histogram: 1 0 0 0 0 0 0 0 0 0
Nghost:        5352.00 ave        5352 max        5352 min
Histogram: 1 0 0 0 0 0 0 0 0 0
Neighs:        153789.0 ave      153789 max      153789 min
Histogram: 1 0 0 0 0 0 0 0 0 0

Total # of neighbors = 153789
Ave neighs/atom = 45.567111
Neighbor list builds = 125
Dangerous builds not checked
variable        diff_accum equal ${diff_accum}+${diff_integ}/(3*${loop_iterations})
variable        diff_accum equal 0.0181107292734578+${diff_integ}/(3*${loop_iterations})
variable        diff_accum equal 0.0181107292734578+0.675694623994661/(3*${loop_iterations})
variable        diff_accum equal 0.0181107292734578+0.675694623994661/(3*25)
unfix           fixVACF
write_data      liquid.T${temp}.rho${rho}.data
write_data      liquid.T1.5.rho${rho}.data
write_data      liquid.T1.5.rho0.61.data
System init for write_data ...
print           "" append log.vacf.T${temp}.rho${rho}.txt screen no
print           "" append log.vacf.T1.5.rho${rho}.txt screen no
print           "" append log.vacf.T1.5.rho0.61.txt screen no

next            loop_counter
jump            SELF loop
clear

pair_style	lj/smooth 2.5 3.0

read_data       liquid.T${temp}.rho${rho}.data
read_data       liquid.T1.5.rho${rho}.data
read_data       liquid.T1.5.rho0.61.data
Reading data file ...
  orthogonal box = (0.0000000 0.0000000 0.0000000) to (17.686748 17.686748 17.686748)
  1 by 1 by 1 MPI processor grid
  reading atoms ...
  3375 atoms
  reading velocities ...
  3375 velocities
  read_data CPU = 0.009 seconds

neighbor	0.3 bin
neigh_modify	every 20 delay 0 check no

fix		1 all nve
timestep        0.002
thermo		50

reset_timestep  0
compute         myVACF all vacf

fix             fixVACF all vector 1 c_myVACF[4]
variable        diff_integ equal dt*trap(f_fixVACF)
variable        curVACF equal c_myVACF[4]

variable        step0 equal step
variable        step0 equal $(v_step0)
variable        step0 equal 0
variable        dtime equal (step-${step0})*dt
variable        dtime equal (step-0)*dt
fix             print_vacf all print 2 "${dtime} ${curVACF} ${diff_integ}" append log.vacf.T${temp}.rho${rho}.txt screen no
fix             print_vacf all print 2 "${dtime} ${curVACF} ${diff_integ}" append log.vacf.T1.5.rho${rho}.txt screen no
fix             print_vacf all print 2 "${dtime} ${curVACF} ${diff_integ}" append log.vacf.T1.5.rho0.61.txt screen no
thermo_style	custom step time temp ke pe etotal press

run             ${loop_length}
run             2500
Neighbor list info ...
  update every 20 steps, delay 0 steps, check no
  max neighbors/atom: 2000, page size: 100000
  master list distance cutoff = 3.3
  ghost atom cutoff = 3.3
  binsize = 1.65, bins = 11 11 11
  1 neighbor lists, perpetual/occasional/extra = 1 0 0
  (1) pair lj/smooth, perpetual
      attributes: half, newton on
      pair build: half/bin/atomonly/newton
      stencil: half/bin/3d
      bin: standard
Per MPI rank memory allocation (min/avg/max) = 3.547 | 3.547 | 3.547 Mbytes
Step Time Temp KinEng PotEng TotEng Press 
       0            0    1.5121981     2.267625   -3.8732473   -1.6056223    1.0376704 
      50          0.1    1.4977632    2.2459792    -3.851552   -1.6055728    1.1250675 
     100          0.2    1.5043574    2.2558675   -3.8616743   -1.6058069    1.1123841 
     150          0.3    1.5052773    2.2572469   -3.8632853   -1.6060384    1.1219092 
     200          0.4    1.5011585    2.2510706   -3.8569145   -1.6058439    1.1179124 
     250          0.5     1.504275    2.2557439   -3.8617231   -1.6059792    1.0969996 
     300          0.6    1.5014901    2.2515678   -3.8574803   -1.6059126    1.1090423 
     350          0.7    1.5064197    2.2589601   -3.8655997   -1.6066396    1.1088902 
     400          0.8    1.4932417    2.2391988   -3.8457808   -1.6065819    1.1338504 
     450          0.9    1.4966645    2.2443316   -3.8502495   -1.6059179    1.1277546 
     500            1    1.5119778    2.2672947   -3.8732254   -1.6059307   0.99963452 
     550          1.1    1.5065898    2.2592151   -3.8654248   -1.6062097   0.99729462 
     600          1.2    1.4932767    2.2392514   -3.8450658   -1.6058143    1.0885352 
     650          1.3    1.5087463     2.262449   -3.8683621   -1.6059132    1.0417689 
     700          1.4    1.4792163     2.218167   -3.8243213   -1.6061543    1.1923112 
     750          1.5    1.4876381     2.230796   -3.8366556   -1.6058596    1.1724022 
     800          1.6    1.5116093    2.2667421   -3.8722813   -1.6055392     1.053754 
     850          1.7    1.5034309    2.2544782   -3.8600124   -1.6055342    1.0955961 
     900          1.8    1.4946305    2.2412815   -3.8466623   -1.6053807    1.1101147 
     950          1.9    1.4961209    2.2435164   -3.8490088   -1.6054924    1.1031013 
    1000            2    1.5047539    2.2564621   -3.8619478   -1.6054857    1.0809973 
    1050          2.1    1.5138219      2.27006   -3.8752147   -1.6051547     1.044595 
    1100          2.2    1.4978355    2.2460875   -3.8516691   -1.6055816    1.1398594 
    1150          2.3    1.4912169    2.2361626   -3.8419123   -1.6057497    1.1308692 
    1200          2.4    1.4784286    2.2169858   -3.8227964   -1.6058106    1.1690396 
    1250          2.5    1.4844539    2.2260212   -3.8323011   -1.6062799    1.1637945 
    1300          2.6    1.4883663     2.231888   -3.8378146   -1.6059266    1.1426438 
    1350          2.7    1.4943713    2.2408929   -3.8467857   -1.6058928    1.1229256 
    1400          2.8    1.4903896    2.2349221   -3.8409138   -1.6059918    1.1627941 
    1450          2.9    1.4961039    2.2434909   -3.8492638   -1.6057728    1.1014066 
    1500            3     1.491483    2.2365616   -3.8419465    -1.605385    1.0993695 
    1550          3.1    1.4894438    2.2335037   -3.8392121   -1.6057084     1.113683 
    1600          3.2    1.5028939    2.2536729    -3.859524   -1.6058511    1.0279593 
    1650          3.3    1.5029234    2.2537171    -3.858995   -1.6052779    1.0400684 
    1700          3.4     1.493168    2.2390884   -3.8445834   -1.6054949    1.1132923 
    1750          3.5    1.4965199    2.2441147   -3.8493927    -1.605278    1.1322586 
    1800          3.6    1.4726006    2.2082464   -3.8137347   -1.6054883    1.2544528 
    1850          3.7    1.5140296    2.2703716   -3.8764832   -1.6061116    1.0352595 
    1900          3.8    1.5022583    2.2527197   -3.8584858   -1.6057661    1.0419744 
    1950          3.9    1.5075296    2.2606244    -3.866237   -1.6056127    1.0288612 
    2000            4     1.505291    2.2572675   -3.8628647   -1.6055972    1.0535286 
    2050          4.1    1.4963306    2.2438309   -3.8495672   -1.6057364    1.0816478 
    2100          4.2    1.4922509    2.2377132   -3.8436795   -1.6059664    1.1112796 
    2150          4.3    1.5004365    2.2499879   -3.8556156   -1.6056277    1.1219893 
    2200          4.4    1.5101375    2.2645351   -3.8703979   -1.6058628    1.1212474 
    2250          4.5    1.5052508    2.2572072   -3.8629922    -1.605785    1.0985675 
    2300          4.6    1.5072084    2.2601427   -3.8656722   -1.6055295    1.0668531 
    2350          4.7    1.5072949    2.2602725   -3.8660426   -1.6057702    1.0766919 
    2400          4.8    1.5010569    2.2509182   -3.8567276   -1.6058093    1.0833559 
    2450          4.9    1.5127493    2.2684517   -3.8742286    -1.605777    1.0476523 
    2500            5    1.4844602    2.2260305   -3.8317371   -1.6057066    1.2011605 
Loop time of 8.50344 on 1 procs for 2500 steps with 3375 atoms

Performance: 50802.956 tau/day, 293.999 timesteps/s
99.7% CPU use with 1 MPI tasks x no OpenMP threads

MPI task timing breakdown:
Section |  min time  |  avg time  |  max time  |%varavg| %total
---------------------------------------------------------------
Pair    | 7.4543     | 7.4543     | 7.4543     |   0.0 | 87.66
Neigh   | 0.75499    | 0.75499    | 0.75499    |   0.0 |  8.88
Comm    | 0.10251    | 0.10251    | 0.10251    |   0.0 |  1.21
Output  | 0.0007936  | 0.0007936  | 0.0007936  |   0.0 |  0.01
Modify  | 0.16609    | 0.16609    | 0.16609    |   0.0 |  1.95
Other   |            | 0.02476    |            |       |  0.29

Nlocal:        3375.00 ave        3375 max        3375 min
Histogram: 1 0 0 0 0 0 0 0 0 0
Nghost:        5311.00 ave        5311 max        5311 min
Histogram: 1 0 0 0 0 0 0 0 0 0
Neighs:        153802.0 ave      153802 max      153802 min
Histogram: 1 0 0 0 0 0 0 0 0 0

Total # of neighbors = 153802
Ave neighs/atom = 45.570963
Neighbor list builds = 125
Dangerous builds not checked
variable        diff_accum equal ${diff_accum}+${diff_integ}/(3*${loop_iterations})
variable        diff_accum equal 0.0271199909267199+${diff_integ}/(3*${loop_iterations})
variable        diff_accum equal 0.0271199909267199+0.768997828101778/(3*${loop_iterations})
variable        diff_accum equal 0.0271199909267199+0.768997828101778/(3*25)
unfix           fixVACF
write_data      liquid.T${temp}.rho${rho}.data
write_data      liquid.T1.5.rho${rho}.data
write_data      liquid.T1.5.rho0.61.data
System init for write_data ...
print           "" append log.vacf.T${temp}.rho${rho}.txt screen no
print           "" append log.vacf.T1.5.rho${rho}.txt screen no
print           "" append log.vacf.T1.5.rho0.61.txt screen no

next            loop_counter
jump            SELF loop
clear

pair_style	lj/smooth 2.5 3.0

read_data       liquid.T${temp}.rho${rho}.data
read_data       liquid.T1.5.rho${rho}.data
read_data       liquid.T1.5.rho0.61.data
Reading data file ...
  orthogonal box = (0.0000000 0.0000000 0.0000000) to (17.686748 17.686748 17.686748)
  1 by 1 by 1 MPI processor grid
  reading atoms ...
  3375 atoms
  reading velocities ...
  3375 velocities
  read_data CPU = 0.009 seconds

neighbor	0.3 bin
neigh_modify	every 20 delay 0 check no

fix		1 all nve
timestep        0.002
thermo		50

reset_timestep  0
compute         myVACF all vacf

fix             fixVACF all vector 1 c_myVACF[4]
variable        diff_integ equal dt*trap(f_fixVACF)
variable        curVACF equal c_myVACF[4]

variable        step0 equal step
variable        step0 equal $(v_step0)
variable        step0 equal 0
variable        dtime equal (step-${step0})*dt
variable        dtime equal (step-0)*dt
fix             print_vacf all print 2 "${dtime} ${curVACF} ${diff_integ}" append log.vacf.T${temp}.rho${rho}.txt screen no
fix             print_vacf all print 2 "${dtime} ${curVACF} ${diff_integ}" append log.vacf.T1.5.rho${rho}.txt screen no
fix             print_vacf all print 2 "${dtime} ${curVACF} ${diff_integ}" append log.vacf.T1.5.rho0.61.txt screen no
thermo_style	custom step time temp ke pe etotal press

run             ${loop_length}
run             2500
Neighbor list info ...
  update every 20 steps, delay 0 steps, check no
  max neighbors/atom: 2000, page size: 100000
  master list distance cutoff = 3.3
  ghost atom cutoff = 3.3
  binsize = 1.65, bins = 11 11 11
  1 neighbor lists, perpetual/occasional/extra = 1 0 0
  (1) pair lj/smooth, perpetual
      attributes: half, newton on
      pair build: half/bin/atomonly/newton
      stencil: half/bin/3d
      bin: standard
Per MPI rank memory allocation (min/avg/max) = 3.543 | 3.543 | 3.543 Mbytes
Step Time Temp KinEng PotEng TotEng Press 
       0            0    1.4844602    2.2260305   -3.8317371   -1.6057066    1.2011605 
      50          0.1    1.5001466    2.2495532   -3.8553094   -1.6057562    1.1490902 
     100          0.2    1.5067633    2.2594753   -3.8647798   -1.6053046    1.0796304 
     150          0.3    1.4793106    2.2183084   -3.8237768   -1.6054684    1.1951965 
     200          0.4    1.4931501    2.2390615   -3.8446489   -1.6055874    1.1261002 
     250          0.5    1.4918285    2.2370797   -3.8427969   -1.6057172    1.0954037 
     300          0.6    1.5027027    2.2533862   -3.8589049   -1.6055187    1.0351431 
     350          0.7    1.4858552    2.2281224    -3.834175   -1.6060525    1.1328816 
     400          0.8    1.5193599    2.2783646   -3.8839233   -1.6055588   0.94496586 
     450          0.9    1.4874761    2.2305531   -3.8360111   -1.6054581    1.0871054 
     500            1    1.4966841    2.2443609     -3.84998    -1.605619    1.0467094 
     550          1.1    1.5096055    2.2637373   -3.8689766   -1.6052393    1.0041385 
     600          1.2    1.4826031    2.2232457   -3.8286935   -1.6054478     1.166403 
     650          1.3    1.4965171    2.2441105   -3.8494567   -1.6053462    1.1296706 
     700          1.4    1.5152506    2.2722024   -3.8776393   -1.6054369     1.014371 
     750          1.5    1.5094456    2.2634975   -3.8686372   -1.6051397    1.0333786 
     800          1.6    1.5111103    2.2659938   -3.8712628    -1.605269    1.0410369 
     850          1.7    1.4850409    2.2269013   -3.8323777   -1.6054764    1.1468291 
     900          1.8     1.499197    2.2481292   -3.8536754   -1.6055462    1.1103204 
     950          1.9    1.4842569    2.2257257   -3.8311255   -1.6053997    1.1953877 
    1000            2    1.5101042    2.2644852   -3.8697034   -1.6052182    1.1090469 
    1050          2.1    1.4979086    2.2461971   -3.8519447   -1.6057476    1.1693404 
    1100          2.2    1.4967452    2.2444526   -3.8504661   -1.6060135    1.1413775 
    1150          2.3    1.4954486    2.2425082   -3.8484867   -1.6059786    1.1261777 
    1200          2.4    1.4815533    2.2216715   -3.8277619   -1.6060904    1.2249876 
    1250          2.5    1.4822218     2.222674   -3.8283224   -1.6056485    1.1700136 
    1300          2.6     1.510937     2.265734   -3.8711323   -1.6053983    1.0250332 
    1350          2.7    1.4934114    2.2394534   -3.8453486   -1.6058953    1.1206089 
    1400          2.8    1.5060768    2.2584459   -3.8642907   -1.6058448    1.0500636 
    1450          2.9    1.4981252     2.246522   -3.8523637   -1.6058416    1.0621307 
    1500            3    1.5213419    2.2813366   -3.8870372   -1.6057005    0.9451947 
    1550          3.1    1.4978158    2.2460579   -3.8519368   -1.6058789    1.0858682 
    1600          3.2    1.4872465    2.2302088   -3.8358418    -1.605633    1.1449605 
    1650          3.3    1.5031405    2.2540428   -3.8599045   -1.6058617    1.0813745 
    1700          3.4    1.4962274    2.2436761   -3.8494291    -1.605753    1.1076183 
    1750          3.5    1.4998306    2.2490793   -3.8552093     -1.60613     1.066887 
    1800          3.6    1.5047393    2.2564401   -3.8619686   -1.6055284    1.0566404 
    1850          3.7    1.4928106    2.2385524   -3.8443457   -1.6057933    1.1224638 
    1900          3.8    1.4728844     2.208672   -3.8143783   -1.6057063    1.2165566 
    1950          3.9    1.5000771    2.2494489   -3.8550235   -1.6055746    1.0835909 
    2000            4    1.4959699    2.2432899    -3.849019    -1.605729    1.1265478 
    2050          4.1    1.4955484     2.242658   -3.8484524   -1.6057945    1.1207415 
    2100          4.2    1.4982791    2.2467528   -3.8523612   -1.6056085    1.0696866 
    2150          4.3     1.496419    2.2439634   -3.8496529   -1.6056894    1.0457385 
    2200          4.4    1.5130797    2.2689471   -3.8745139   -1.6055668   0.95542401 
    2250          4.5    1.4928036    2.2385419   -3.8440377   -1.6054958    1.1040357 
    2300          4.6    1.4956783    2.2428526   -3.8485577    -1.605705    1.1098441 
    2350          4.7    1.5248514    2.2865993   -3.8922133    -1.605614   0.96819082 
    2400          4.8    1.4922265    2.2376766   -3.8430962   -1.6054196    1.1010388 
    2450          4.9    1.5180916    2.2764627   -3.8817513   -1.6052886   0.97027933 
    2500            5    1.4884807    2.2320595   -3.8376312   -1.6055717     1.115414 
Loop time of 8.52178 on 1 procs for 2500 steps with 3375 atoms

Performance: 50693.639 tau/day, 293.366 timesteps/s
99.7% CPU use with 1 MPI tasks x no OpenMP threads

MPI task timing breakdown:
Section |  min time  |  avg time  |  max time  |%varavg| %total
---------------------------------------------------------------
Pair    | 7.4726     | 7.4726     | 7.4726     |   0.0 | 87.69
Neigh   | 0.75487    | 0.75487    | 0.75487    |   0.0 |  8.86
Comm    | 0.10239    | 0.10239    | 0.10239    |   0.0 |  1.20
Output  | 0.00079205 | 0.00079205 | 0.00079205 |   0.0 |  0.01
Modify  | 0.16609    | 0.16609    | 0.16609    |   0.0 |  1.95
Other   |            | 0.02504    |            |       |  0.29

Nlocal:        3375.00 ave        3375 max        3375 min
Histogram: 1 0 0 0 0 0 0 0 0 0
Nghost:        5343.00 ave        5343 max        5343 min
Histogram: 1 0 0 0 0 0 0 0 0 0
Neighs:        153885.0 ave      153885 max      153885 min
Histogram: 1 0 0 0 0 0 0 0 0 0

Total # of neighbors = 153885
Ave neighs/atom = 45.595556
Neighbor list builds = 125
Dangerous builds not checked
variable        diff_accum equal ${diff_accum}+${diff_integ}/(3*${loop_iterations})
variable        diff_accum equal 0.0373732953014103+${diff_integ}/(3*${loop_iterations})
variable        diff_accum equal 0.0373732953014103+0.73077507913114/(3*${loop_iterations})
variable        diff_accum equal 0.0373732953014103+0.73077507913114/(3*25)
unfix           fixVACF
write_data      liquid.T${temp}.rho${rho}.data
write_data      liquid.T1.5.rho${rho}.data
write_data      liquid.T1.5.rho0.61.data
System init for write_data ...
print           "" append log.vacf.T${temp}.rho${rho}.txt screen no
print           "" append log.vacf.T1.5.rho${rho}.txt screen no
print           "" append log.vacf.T1.5.rho0.61.txt screen no

next            loop_counter
jump            SELF loop
clear

pair_style	lj/smooth 2.5 3.0

read_data       liquid.T${temp}.rho${rho}.data
read_data       liquid.T1.5.rho${rho}.data
read_data       liquid.T1.5.rho0.61.data
Reading data file ...
  orthogonal box = (0.0000000 0.0000000 0.0000000) to (17.686748 17.686748 17.686748)
  1 by 1 by 1 MPI processor grid
  reading atoms ...
  3375 atoms
  reading velocities ...
  3375 velocities
  read_data CPU = 0.009 seconds

neighbor	0.3 bin
neigh_modify	every 20 delay 0 check no

fix		1 all nve
timestep        0.002
thermo		50

reset_timestep  0
compute         myVACF all vacf

fix             fixVACF all vector 1 c_myVACF[4]
variable        diff_integ equal dt*trap(f_fixVACF)
variable        curVACF equal c_myVACF[4]

variable        step0 equal step
variable        step0 equal $(v_step0)
variable        step0 equal 0
variable        dtime equal (step-${step0})*dt
variable        dtime equal (step-0)*dt
fix             print_vacf all print 2 "${dtime} ${curVACF} ${diff_integ}" append log.vacf.T${temp}.rho${rho}.txt screen no
fix             print_vacf all print 2 "${dtime} ${curVACF} ${diff_integ}" append log.vacf.T1.5.rho${rho}.txt screen no
fix             print_vacf all print 2 "${dtime} ${curVACF} ${diff_integ}" append log.vacf.T1.5.rho0.61.txt screen no
thermo_style	custom step time temp ke pe etotal press

run             ${loop_length}
run             2500
Neighbor list info ...
  update every 20 steps, delay 0 steps, check no
  max neighbors/atom: 2000, page size: 100000
  master list distance cutoff = 3.3
  ghost atom cutoff = 3.3
  binsize = 1.65, bins = 11 11 11
  1 neighbor lists, perpetual/occasional/extra = 1 0 0
  (1) pair lj/smooth, perpetual
      attributes: half, newton on
      pair build: half/bin/atomonly/newton
      stencil: half/bin/3d
      bin: standard
Per MPI rank memory allocation (min/avg/max) = 3.545 | 3.545 | 3.545 Mbytes
Step Time Temp KinEng PotEng TotEng Press 
       0            0    1.4884807    2.2320595   -3.8376312   -1.6055717     1.115414 
      50          0.1    1.5200413    2.2793864     -3.88526   -1.6058736    0.9581352 
     100          0.2     1.493855    2.2401185   -3.8454002   -1.6052817    1.1203522 
     150          0.3    1.5024065     2.252942   -3.8585823   -1.6056403     1.098873 
     200          0.4    1.5012587    2.2512209   -3.8564067   -1.6051858    1.1092957 
     250          0.5    1.4906687    2.2353406   -3.8405727   -1.6052321    1.1608227 
     300          0.6    1.4903953    2.2349305   -3.8403159   -1.6053854    1.1597574 
     350          0.7    1.4920109    2.2373533   -3.8432501   -1.6058968    1.1307255 
     400          0.8    1.5019997    2.2523321   -3.8580115   -1.6056794    1.1194536 
     450          0.9    1.4862487    2.2287125   -3.8349392   -1.6062268    1.1614281 
     500            1    1.4955354    2.2426383   -3.8487872   -1.6061489    1.1173825 
     550          1.1    1.5041578    2.2555682   -3.8613905   -1.6058223    1.0962362 
     600          1.2    1.5061462      2.25855   -3.8644986   -1.6059487    1.0535598 
     650          1.3    1.5113613    2.2663703   -3.8721224   -1.6057521    1.0095993 
     700          1.4    1.4847162    2.2264144   -3.8322172   -1.6058029    1.1391747 
     750          1.5    1.4994971    2.2485792    -3.853626   -1.6050468    1.0929216 
     800          1.6    1.5087259    2.2624184   -3.8676802   -1.6052618    1.0747778 
     850          1.7    1.4874946    2.2305808   -3.8359592   -1.6053784    1.1707568 
     900          1.8    1.4902215      2.23467   -3.8404046   -1.6057346    1.1796412 
     950          1.9    1.4979865     2.246314   -3.8523449   -1.6060308    1.1554522 
    1000            2     1.501374    2.2513937   -3.8572299   -1.6058361    1.1115786 
    1050          2.1     1.496637    2.2442903   -3.8492309   -1.6049406    1.1388115 
    1100          2.2    1.5051984    2.2571286    -3.862519   -1.6053904    1.1134349 
    1150          2.3    1.5031875    2.2541132   -3.8594737   -1.6053605    1.0869169 
    1200          2.4    1.5150381    2.2718838   -3.8777723   -1.6058885   0.98629732 
    1250          2.5    1.4951453    2.2420534   -3.8476676   -1.6056142    1.0784528 
    1300          2.6    1.4935399    2.2396461   -3.8451761     -1.60553    1.1007979 
    1350          2.7    1.5169661    2.2747749   -3.8805245   -1.6057497    1.0101986 
    1400          2.8    1.4805631    2.2201867   -3.8259951   -1.6058084    1.1814475 
    1450          2.9    1.5032666    2.2542317   -3.8600679   -1.6058362    1.0624253 
    1500            3     1.514863    2.2716212   -3.8773529   -1.6057317   0.99613415 
    1550          3.1    1.4912485      2.23621   -3.8417225   -1.6055125    1.1052447 
    1600          3.2    1.5033729    2.2543912   -3.8598761   -1.6054849    1.0718645 
    1650          3.3    1.5168259    2.2745647   -3.8798441   -1.6052794    1.0118765 
    1700          3.4    1.5099352    2.2642318   -3.8699982   -1.6057664    1.0705931 
    1750          3.5     1.488212    2.2316566   -3.8368328   -1.6051761    1.1822527 
    1800          3.6    1.5018736    2.2521429   -3.8577846   -1.6056417    1.1150602 
    1850          3.7    1.4844307    2.2259863   -3.8316481   -1.6056617     1.206943 
    1900          3.8    1.4865049    2.2290968    -3.835163   -1.6060662    1.1911829 
    1950          3.9    1.4899515    2.2342651   -3.8397693   -1.6055043    1.1772729 
    2000            4     1.512676    2.2683418    -3.874045   -1.6057033    1.0443761 
    2050          4.1    1.4998797    2.2491529   -3.8552285   -1.6060756    1.1171966 
    2100          4.2    1.4970238    2.2448704   -3.8505117   -1.6056413    1.1378034 
    2150          4.3    1.5022594    2.2527215   -3.8588309   -1.6061094    1.1266359 
    2200          4.4    1.4993929    2.2484229   -3.8541291   -1.6057061    1.1442641 
    2250          4.5    1.5099941      2.26432   -3.8702471   -1.6059271     1.090441 
    2300          4.6    1.4939609    2.2402773   -3.8461474   -1.6058701    1.1416608 
    2350          4.7    1.5225335    2.2831235   -3.8892698   -1.6061463   0.95747273 
    2400          4.8    1.4868638    2.2296349    -3.835765   -1.6061301    1.1448937 
    2450          4.9    1.4901781    2.2346049   -3.8403294   -1.6057246    1.1344363 
    2500            5    1.5015822    2.2517059   -3.8568887   -1.6051828    1.0610076 
Loop time of 8.563 on 1 procs for 2500 steps with 3375 atoms

Performance: 50449.580 tau/day, 291.954 timesteps/s
99.7% CPU use with 1 MPI tasks x no OpenMP threads

MPI task timing breakdown:
Section |  min time  |  avg time  |  max time  |%varavg| %total
---------------------------------------------------------------
Pair    | 7.521      | 7.521      | 7.521      |   0.0 | 87.83
Neigh   | 0.74814    | 0.74814    | 0.74814    |   0.0 |  8.74
Comm    | 0.10367    | 0.10367    | 0.10367    |   0.0 |  1.21
Output  | 0.00079747 | 0.00079747 | 0.00079747 |   0.0 |  0.01
Modify  | 0.16425    | 0.16425    | 0.16425    |   0.0 |  1.92
Other   |            | 0.02511    |            |       |  0.29

Nlocal:        3375.00 ave        3375 max        3375 min
Histogram: 1 0 0 0 0 0 0 0 0 0
Nghost:        5426.00 ave        5426 max        5426 min
Histogram: 1 0 0 0 0 0 0 0 0 0
Neighs:        153678.0 ave      153678 max      153678 min
Histogram: 1 0 0 0 0 0 0 0 0 0

Total # of neighbors = 153678
Ave neighs/atom = 45.534222
Neighbor list builds = 125
Dangerous builds not checked
variable        diff_accum equal ${diff_accum}+${diff_integ}/(3*${loop_iterations})
variable        diff_accum equal 0.0471169630231588+${diff_integ}/(3*${loop_iterations})
variable        diff_accum equal 0.0471169630231588+0.691790928078178/(3*${loop_iterations})
variable        diff_accum equal 0.0471169630231588+0.691790928078178/(3*25)
unfix           fixVACF
write_data      liquid.T${temp}.rho${rho}.data
write_data      liquid.T1.5.rho${rho}.data
write_data      liquid.T1.5.rho0.61.data
System init for write_data ...
print           "" append log.vacf.T${temp}.rho${rho}.txt screen no
print           "" append log.vacf.T1.5.rho${rho}.txt screen no
print           "" append log.vacf.T1.5.rho0.61.txt screen no

next            loop_counter
jump            SELF loop
clear

pair_style	lj/smooth 2.5 3.0

read_data       liquid.T${temp}.rho${rho}.data
read_data       liquid.T1.5.rho${rho}.data
read_data       liquid.T1.5.rho0.61.data
Reading data file ...
  orthogonal box = (0.0000000 0.0000000 0.0000000) to (17.686748 17.686748 17.686748)
  1 by 1 by 1 MPI processor grid
  reading atoms ...
  3375 atoms
  reading velocities ...
  3375 velocities
  read_data CPU = 0.009 seconds

neighbor	0.3 bin
neigh_modify	every 20 delay 0 check no

fix		1 all nve
timestep        0.002
thermo		50

reset_timestep  0
compute         myVACF all vacf

fix             fixVACF all vector 1 c_myVACF[4]
variable        diff_integ equal dt*trap(f_fixVACF)
variable        curVACF equal c_myVACF[4]

variable        step0 equal step
variable        step0 equal $(v_step0)
variable        step0 equal 0
variable        dtime equal (step-${step0})*dt
variable        dtime equal (step-0)*dt
fix             print_vacf all print 2 "${dtime} ${curVACF} ${diff_integ}" append log.vacf.T${temp}.rho${rho}.txt screen no
fix             print_vacf all print 2 "${dtime} ${curVACF} ${diff_integ}" append log.vacf.T1.5.rho${rho}.txt screen no
fix             print_vacf all print 2 "${dtime} ${curVACF} ${diff_integ}" append log.vacf.T1.5.rho0.61.txt screen no
thermo_style	custom step time temp ke pe etotal press

run             ${loop_length}
run             2500
Neighbor list info ...
  update every 20 steps, delay 0 steps, check no
  max neighbors/atom: 2000, page size: 100000
  master list distance cutoff = 3.3
  ghost atom cutoff = 3.3
  binsize = 1.65, bins = 11 11 11
  1 neighbor lists, perpetual/occasional/extra = 1 0 0
  (1) pair lj/smooth, perpetual
      attributes: half, newton on
      pair build: half/bin/atomonly/newton
      stencil: half/bin/3d
      bin: standard
Per MPI rank memory allocation (min/avg/max) = 3.552 | 3.552 | 3.552 Mbytes
Step Time Temp KinEng PotEng TotEng Press 
       0            0    1.5015822    2.2517059   -3.8568887   -1.6051828    1.0610076 
      50          0.1    1.4943738    2.2408966    -3.846098   -1.6052015    1.1207171 
     100          0.2    1.4834567    2.2245257   -3.8295046    -1.604979    1.1696374 
     150          0.3    1.4891748    2.2331004   -3.8392656   -1.6061652    1.1653284 
     200          0.4     1.507986    2.2613088   -3.8673324   -1.6060237    1.0778222 
     250          0.5    1.4932177    2.2391629   -3.8449909    -1.605828     1.125442 
     300          0.6    1.5238173    2.2850487   -3.8908504   -1.6058016   0.98973301 
     350          0.7    1.5164238    2.2739617   -3.8799614   -1.6059997    1.0276599 
     400          0.8    1.4981871    2.2466148   -3.8525992   -1.6059844    1.1569055 
     450          0.9    1.5078938    2.2611705   -3.8670279   -1.6058574    1.1242511 
     500            1    1.5188623    2.2776184   -3.8830375   -1.6054191    1.0091288 
     550          1.1    1.5040678    2.2554332   -3.8603254   -1.6048922    1.0373393 
     600          1.2    1.4948336    2.2415861   -3.8465965   -1.6050104    1.0820579 
     650          1.3    1.5015299    2.2516276   -3.8570843   -1.6054568    1.0867992 
     700          1.4    1.4987672    2.2474847    -3.852583   -1.6050983    1.1229555 
     750          1.5    1.4980781    2.2464514   -3.8523568   -1.6059054     1.151378 
     800          1.6    1.4949996     2.241835   -3.8475292   -1.6056942    1.1762527 
     850          1.7    1.5119332    2.2672279   -3.8730408   -1.6058129    1.0798842 
     900          1.8    1.5082689    2.2617329   -3.8679483   -1.6062154    1.0826394 
     950          1.9    1.4884151    2.2319612    -3.838168   -1.6062068    1.1677377 
    1000            2    1.4934889    2.2395696   -3.8457702   -1.6062006    1.1252544 
    1050          2.1    1.4983553     2.246867   -3.8529428   -1.6060758    1.1433275 
    1100          2.2    1.5000244    2.2493699   -3.8555451   -1.6061751    1.1182985 
    1150          2.3    1.5034175    2.2544581   -3.8606033   -1.6061452    1.1169868 
    1200          2.4    1.4954458    2.2425041   -3.8484258   -1.6059217    1.1370726 
    1250          2.5    1.5041723    2.2555899   -3.8618864   -1.6062965    1.0793781 
    1300          2.6    1.4953478    2.2423571   -3.8481461    -1.605789    1.0657279 
    1350          2.7    1.5082858    2.2617584    -3.867655   -1.6058966    1.0072163 
    1400          2.8    1.5084043     2.261936   -3.8679862   -1.6060501    1.0456473 
    1450          2.9    1.4931978    2.2391331   -3.8448118   -1.6056787    1.1403892 
    1500            3    1.4987192    2.2474127   -3.8533654   -1.6059527    1.0879625 
    1550          3.1    1.4992416    2.2481961   -3.8542746   -1.6060785     1.067906 
    1600          3.2    1.5047473    2.2564522   -3.8628524   -1.6064002    1.0866562 
    1650          3.3    1.4939242    2.2402223   -3.8464449   -1.6062226    1.1641478 
    1700          3.4    1.5024568    2.2530174   -3.8593555   -1.6063381    1.1414919 
    1750          3.5    1.5027052      2.25339   -3.8595543   -1.6061644    1.1301839 
    1800          3.6    1.4906351    2.2352902   -3.8410124   -1.6057222    1.1577819 
    1850          3.7    1.5068577    2.2596169   -3.8653062   -1.6056893    1.0471241 
    1900          3.8    1.4963378    2.2438416   -3.8495904   -1.6057488    1.0813325 
    1950          3.9    1.4935333    2.2396361   -3.8451626   -1.6055264     1.107348 
    2000            4    1.5097956    2.2640224    -3.869594   -1.6055716    1.0334108 
    2050          4.1     1.513131    2.2690239   -3.8749436   -1.6059197    1.0232068 
    2100          4.2     1.499164    2.2480798   -3.8536222   -1.6055424    1.0965672 
    2150          4.3    1.5043871    2.2559121   -3.8621761    -1.606264    1.0862221 
    2200          4.4    1.5000547    2.2494153   -3.8552965   -1.6058812    1.1473688 
    2250          4.5     1.490361    2.2348792    -3.840798   -1.6059189    1.2249117 
    2300          4.6     1.497295     2.245277    -3.851404   -1.6061271    1.1844377 
    2350          4.7    1.4871691    2.2300926   -3.8366647   -1.6065721    1.2087355 
    2400          4.8    1.4848364    2.2265947    -3.832429   -1.6058343    1.2106674 
    2450          4.9    1.5113268    2.2663186   -3.8720616    -1.605743    1.0440347 
    2500            5    1.5197546    2.2789564   -3.8844555   -1.6054991   0.97530802 
Loop time of 8.51758 on 1 procs for 2500 steps with 3375 atoms

Performance: 50718.603 tau/day, 293.510 timesteps/s
99.8% CPU use with 1 MPI tasks x no OpenMP threads

MPI task timing breakdown:
Section |  min time  |  avg time  |  max time  |%varavg| %total
---------------------------------------------------------------
Pair    | 7.4644     | 7.4644     | 7.4644     |   0.0 | 87.64
Neigh   | 0.75731    | 0.75731    | 0.75731    |   0.0 |  8.89
Comm    | 0.104      | 0.104      | 0.104      |   0.0 |  1.22
Output  | 0.00082057 | 0.00082057 | 0.00082057 |   0.0 |  0.01
Modify  | 0.16588    | 0.16588    | 0.16588    |   0.0 |  1.95
Other   |            | 0.02519    |            |       |  0.30

Nlocal:        3375.00 ave        3375 max        3375 min
Histogram: 1 0 0 0 0 0 0 0 0 0
Nghost:        5274.00 ave        5274 max        5274 min
Histogram: 1 0 0 0 0 0 0 0 0 0
Neighs:        153929.0 ave      153929 max      153929 min
Histogram: 1 0 0 0 0 0 0 0 0 0

Total # of neighbors = 153929
Ave neighs/atom = 45.608593
Neighbor list builds = 125
Dangerous builds not checked
variable        diff_accum equal ${diff_accum}+${diff_integ}/(3*${loop_iterations})
variable        diff_accum equal 0.0563408420642012+${diff_integ}/(3*${loop_iterations})
variable        diff_accum equal 0.0563408420642012+0.747265258069754/(3*${loop_iterations})
variable        diff_accum equal 0.0563408420642012+0.747265258069754/(3*25)
unfix           fixVACF
write_data      liquid.T${temp}.rho${rho}.data
write_data      liquid.T1.5.rho${rho}.data
write_data      liquid.T1.5.rho0.61.data
System init for write_data ...
print           "" append log.vacf.T${temp}.rho${rho}.txt screen no
print           "" append log.vacf.T1.5.rho${rho}.txt screen no
print           "" append log.vacf.T1.5.rho0.61.txt screen no

next            loop_counter
jump            SELF loop
clear

pair_style	lj/smooth 2.5 3.0

read_data       liquid.T${temp}.rho${rho}.data
read_data       liquid.T1.5.rho${rho}.data
read_data       liquid.T1.5.rho0.61.data
Reading data file ...
  orthogonal box = (0.0000000 0.0000000 0.0000000) to (17.686748 17.686748 17.686748)
  1 by 1 by 1 MPI processor grid
  reading atoms ...
  3375 atoms
  reading velocities ...
  3375 velocities
  read_data CPU = 0.009 seconds

neighbor	0.3 bin
neigh_modify	every 20 delay 0 check no

fix		1 all nve
timestep        0.002
thermo		50

reset_timestep  0
compute         myVACF all vacf

fix             fixVACF all vector 1 c_myVACF[4]
variable        diff_integ equal dt*trap(f_fixVACF)
variable        curVACF equal c_myVACF[4]

variable        step0 equal step
variable        step0 equal $(v_step0)
variable        step0 equal 0
variable        dtime equal (step-${step0})*dt
variable        dtime equal (step-0)*dt
fix             print_vacf all print 2 "${dtime} ${curVACF} ${diff_integ}" append log.vacf.T${temp}.rho${rho}.txt screen no
fix             print_vacf all print 2 "${dtime} ${curVACF} ${diff_integ}" append log.vacf.T1.5.rho${rho}.txt screen no
fix             print_vacf all print 2 "${dtime} ${curVACF} ${diff_integ}" append log.vacf.T1.5.rho0.61.txt screen no
thermo_style	custom step time temp ke pe etotal press

run             ${loop_length}
run             2500
Neighbor list info ...
  update every 20 steps, delay 0 steps, check no
  max neighbors/atom: 2000, page size: 100000
  master list distance cutoff = 3.3
  ghost atom cutoff = 3.3
  binsize = 1.65, bins = 11 11 11
  1 neighbor lists, perpetual/occasional/extra = 1 0 0
  (1) pair lj/smooth, perpetual
      attributes: half, newton on
      pair build: half/bin/atomonly/newton
      stencil: half/bin/3d
      bin: standard
Per MPI rank memory allocation (min/avg/max) = 3.541 | 3.541 | 3.541 Mbytes
Step Time Temp KinEng PotEng TotEng Press 
       0            0    1.5197546    2.2789564   -3.8844555   -1.6054991   0.97530802 
      50          0.1     1.500745    2.2504505   -3.8559787   -1.6055282    1.0358149 
     100          0.2     1.511559    2.2666667   -3.8722851   -1.6056184   0.99134534 
     150          0.3    1.4867986    2.2295371   -3.8352109   -1.6056738    1.1236945 
     200          0.4    1.4881168    2.2315139   -3.8371837   -1.6056699    1.1273548 
     250          0.5    1.5052417    2.2571935   -3.8630669   -1.6058734    1.1019551 
     300          0.6    1.4867591    2.2294779   -3.8354465   -1.6059686    1.1999736 
     350          0.7    1.5002923    2.2497716   -3.8559895   -1.6062179    1.1436914 
     400          0.8    1.4915983    2.2367346   -3.8426205    -1.605886    1.1244976 
     450          0.9    1.5018778    2.2521492   -3.8577616   -1.6056124    1.0614816 
     500            1    1.5027099     2.253397   -3.8591028   -1.6057059    1.0929996 
     550          1.1    1.4821628    2.2225854   -3.8286112   -1.6060258    1.1991725 
     600          1.2    1.5053309    2.2573274   -3.8633429   -1.6060155     1.073996 
     650          1.3    1.4980113    2.2463512    -3.852463   -1.6061118    1.1217805 
     700          1.4    1.4951293    2.2420295   -3.8480218   -1.6059923    1.1305022 
     750          1.5    1.5100993    2.2644778   -3.8703101   -1.6058323    1.1035792 
     800          1.6    1.5007821    2.2505061   -3.8565115   -1.6060054    1.1178667 
     850          1.7    1.5035104    2.2545974    -3.860717   -1.6061196    1.0653991 
     900          1.8     1.484833    2.2265896   -3.8322898   -1.6057002    1.1445926 
     950          1.9    1.4898847    2.2341648   -3.8398921   -1.6057272    1.1208307 
    1000            2    1.5019185    2.2522102   -3.8577396   -1.6055294    1.0528611 
    1050          2.1    1.4891817    2.2331107   -3.8386757    -1.605565    1.1363652 
    1100          2.2    1.4963349    2.2438373   -3.8491157   -1.6052784    1.0977323 
    1150          2.3     1.499989    2.2493169   -3.8547092   -1.6053923    1.1083847 
    1200          2.4    1.5074904    2.2605656    -3.866498   -1.6059324    1.1071079 
    1250          2.5    1.4803826     2.219916   -3.8257464   -1.6058304    1.2756225 
    1300          2.6    1.5136886    2.2698602   -3.8753756   -1.6055154    1.1057258 
    1350          2.7    1.5024024    2.2529359   -3.8586584   -1.6057225    1.1163259 
    1400          2.8    1.4803633    2.2198871   -3.8258003   -1.6059132     1.195164 
    1450          2.9    1.4908074    2.2355486   -3.8410456   -1.6054971     1.141964 
    1500            3    1.5007323    2.2504314   -3.8556116   -1.6051801     1.088078 
    1550          3.1    1.4898786    2.2341558   -3.8398185   -1.6056628    1.1302901 
    1600          3.2    1.4738761    2.2101591   -3.8162203   -1.6060612    1.2179244 
    1650          3.3    1.5212821     2.281247   -3.8869563   -1.6057093     1.013614 
    1700          3.4    1.4903544    2.2348692    -3.840749   -1.6058798    1.1911984 
    1750          3.5      1.50328    2.2542519   -3.8602723   -1.6060204    1.1268349 
    1800          3.6      1.50989     2.264164   -3.8699664   -1.6058024     1.040636 
    1850          3.7    1.5029051    2.2536897   -3.8591404   -1.6054507    1.0426477 
    1900          3.8    1.4986589    2.2473223   -3.8531032   -1.6057809     1.063814 
    1950          3.9    1.5049322    2.2567294   -3.8622387   -1.6055093     1.029429 
    2000            4    1.4809969    2.2208371   -3.8265862   -1.6057491    1.1589106 
    2050          4.1    1.4940978    2.2404826   -3.8465034   -1.6060208    1.1024275 
    2100          4.2    1.4984208    2.2469653    -3.852489   -1.6055237    1.0905908 
    2150          4.3    1.4937717    2.2399936   -3.8458998   -1.6059062    1.1239029 
    2200          4.4    1.4993987    2.2484316   -3.8536764   -1.6052448    1.1022996 
    2250          4.5    1.5115799    2.2666981   -3.8721546   -1.6054565    1.0841039 
    2300          4.6    1.5046464    2.2563009   -3.8616328   -1.6053319    1.0936866 
    2350          4.7    1.4946047    2.2412427   -3.8464004   -1.6051577    1.1057716 
    2400          4.8     1.502063    2.2524269   -3.8577525   -1.6053256    1.0806953 
    2450          4.9    1.5026454    2.2533003   -3.8588051   -1.6055048    1.1201266 
    2500            5    1.4831995      2.22414   -3.8300777   -1.6059377    1.1884083 
Loop time of 8.54958 on 1 procs for 2500 steps with 3375 atoms

Performance: 50528.792 tau/day, 292.412 timesteps/s
99.7% CPU use with 1 MPI tasks x no OpenMP threads

MPI task timing breakdown:
Section |  min time  |  avg time  |  max time  |%varavg| %total
---------------------------------------------------------------
Pair    | 7.4914     | 7.4914     | 7.4914     |   0.0 | 87.62
Neigh   | 0.75602    | 0.75602    | 0.75602    |   0.0 |  8.84
Comm    | 0.10464    | 0.10464    | 0.10464    |   0.0 |  1.22
Output  | 0.00079792 | 0.00079792 | 0.00079792 |   0.0 |  0.01
Modify  | 0.17182    | 0.17182    | 0.17182    |   0.0 |  2.01
Other   |            | 0.02494    |            |       |  0.29

Nlocal:        3375.00 ave        3375 max        3375 min
Histogram: 1 0 0 0 0 0 0 0 0 0
Nghost:        5366.00 ave        5366 max        5366 min
Histogram: 1 0 0 0 0 0 0 0 0 0
Neighs:        153520.0 ave      153520 max      153520 min
Histogram: 1 0 0 0 0 0 0 0 0 0

Total # of neighbors = 153520
Ave neighs/atom = 45.487407
Neighbor list builds = 125
Dangerous builds not checked
variable        diff_accum equal ${diff_accum}+${diff_integ}/(3*${loop_iterations})
variable        diff_accum equal 0.0663043788384646+${diff_integ}/(3*${loop_iterations})
variable        diff_accum equal 0.0663043788384646+0.669577792430071/(3*${loop_iterations})
variable        diff_accum equal 0.0663043788384646+0.669577792430071/(3*25)
unfix           fixVACF
write_data      liquid.T${temp}.rho${rho}.data
write_data      liquid.T1.5.rho${rho}.data
write_data      liquid.T1.5.rho0.61.data
System init for write_data ...
print           "" append log.vacf.T${temp}.rho${rho}.txt screen no
print           "" append log.vacf.T1.5.rho${rho}.txt screen no
print           "" append log.vacf.T1.5.rho0.61.txt screen no

next            loop_counter
jump            SELF loop
clear

pair_style	lj/smooth 2.5 3.0

read_data       liquid.T${temp}.rho${rho}.data
read_data       liquid.T1.5.rho${rho}.data
read_data       liquid.T1.5.rho0.61.data
Reading data file ...
  orthogonal box = (0.0000000 0.0000000 0.0000000) to (17.686748 17.686748 17.686748)
  1 by 1 by 1 MPI processor grid
  reading atoms ...
  3375 atoms
  reading velocities ...
  3375 velocities
  read_data CPU = 0.009 seconds

neighbor	0.3 bin
neigh_modify	every 20 delay 0 check no

fix		1 all nve
timestep        0.002
thermo		50

reset_timestep  0
compute         myVACF all vacf

fix             fixVACF all vector 1 c_myVACF[4]
variable        diff_integ equal dt*trap(f_fixVACF)
variable        curVACF equal c_myVACF[4]

variable        step0 equal step
variable        step0 equal $(v_step0)
variable        step0 equal 0
variable        dtime equal (step-${step0})*dt
variable        dtime equal (step-0)*dt
fix             print_vacf all print 2 "${dtime} ${curVACF} ${diff_integ}" append log.vacf.T${temp}.rho${rho}.txt screen no
fix             print_vacf all print 2 "${dtime} ${curVACF} ${diff_integ}" append log.vacf.T1.5.rho${rho}.txt screen no
fix             print_vacf all print 2 "${dtime} ${curVACF} ${diff_integ}" append log.vacf.T1.5.rho0.61.txt screen no
thermo_style	custom step time temp ke pe etotal press

run             ${loop_length}
run             2500
Neighbor list info ...
  update every 20 steps, delay 0 steps, check no
  max neighbors/atom: 2000, page size: 100000
  master list distance cutoff = 3.3
  ghost atom cutoff = 3.3
  binsize = 1.65, bins = 11 11 11
  1 neighbor lists, perpetual/occasional/extra = 1 0 0
  (1) pair lj/smooth, perpetual
      attributes: half, newton on
      pair build: half/bin/atomonly/newton
      stencil: half/bin/3d
      bin: standard
Per MPI rank memory allocation (min/avg/max) = 3.549 | 3.549 | 3.549 Mbytes
Step Time Temp KinEng PotEng TotEng Press 
       0            0    1.4831995      2.22414   -3.8300777   -1.6059377    1.1884083 
      50          0.1    1.4960048    2.2433423   -3.8493749   -1.6060326    1.1334444 
     100          0.2    1.4949559    2.2417694   -3.8477067   -1.6059373     1.111346 
     150          0.3    1.4972123     2.245153   -3.8513412   -1.6061882    1.0776224 
     200          0.4    1.4988662    2.2476331   -3.8540705   -1.6064374    1.0988365 
     250          0.5    1.4900206    2.2343687   -3.8403006   -1.6059319    1.1405992 
     300          0.6    1.5049508    2.2567574   -3.8626233    -1.605866    1.0858107 
     350          0.7    1.4961451    2.2435526   -3.8492341   -1.6056814    1.1273536 
     400          0.8    1.4892819    2.2332609   -3.8389219   -1.6056609    1.1464403 
     450          0.9    1.4996927    2.2488725   -3.8547782   -1.6059058    1.1148893 
     500            1    1.4931729    2.2390957   -3.8446203   -1.6055246    1.1346355 
     550          1.1    1.4966176    2.2442612   -3.8495186   -1.6052573    1.1205537 
     600          1.2    1.4982436    2.2466996   -3.8514178   -1.6047182    1.1126416 
     650          1.3    1.4947115    2.2414029    -3.846524   -1.6051211    1.1040204 
     700          1.4    1.4842708    2.2257465   -3.8314213   -1.6056748    1.1816312 
     750          1.5    1.4773055    2.2153017   -3.8209708   -1.6056691    1.2141498 
     800          1.6    1.4875177    2.2306155   -3.8362028   -1.6055874    1.1332943 
     850          1.7    1.5024562    2.2530165   -3.8584345    -1.605418    1.0553189 
     900          1.8    1.4895897    2.2337225   -3.8393693   -1.6056468    1.1303542 
     950          1.9    1.5039613    2.2552735    -3.861092   -1.6058185    1.0259145 
    1000            2    1.4916597    2.2368267   -3.8424551   -1.6056285    1.0745811 
    1050          2.1    1.4934629    2.2395306   -3.8451675   -1.6056369    1.0788296 
    1100          2.2    1.4954373    2.2424914   -3.8480778   -1.6055865    1.1013806 
    1150          2.3    1.4932297     2.239181   -3.8446514   -1.6054704    1.1401061 
    1200          2.4    1.4924916    2.2380741   -3.8442542   -1.6061801    1.0816502 
    1250          2.5    1.4769034    2.2146987   -3.8205809   -1.6058822    1.1320384 
    1300          2.6    1.5129828    2.2688018   -3.8748287   -1.6060269   0.99280154 
    1350          2.7    1.4970574    2.2449207   -3.8507498   -1.6058291     1.069573 
    1400          2.8    1.5246048    2.2862296   -3.8919462   -1.6057166   0.96841886 
    1450          2.9    1.5001501    2.2495584   -3.8553582   -1.6057998    1.1005993 
    1500            3    1.5023358    2.2528359   -3.8587632   -1.6059273    1.0962038 
    1550          3.1    1.5005324    2.2501317   -3.8560197    -1.605888    1.1173736 
    1600          3.2    1.5082942    2.2617709   -3.8679579   -1.6061869     1.086645 
    1650          3.3    1.5017911    2.2520192   -3.8577001   -1.6056809    1.1192187 
    1700          3.4    1.5130568    2.2689127   -3.8747942   -1.6058815    1.0609357 
    1750          3.5    1.4914694    2.2365413    -3.841813   -1.6052718    1.1310011 
    1800          3.6    1.5070791    2.2599488   -3.8654604   -1.6055116     1.040912 
    1850          3.7     1.485272    2.2272479   -3.8328377   -1.6055899    1.1380005 
    1900          3.8    1.4746139    2.2112654   -3.8170349   -1.6057695    1.1782659 
    1950          3.9    1.5049675    2.2567824   -3.8622359   -1.6054535    1.0691129 
    2000            4    1.4977105    2.2459001   -3.8512472    -1.605347    1.1179986 
    2050          4.1    1.4923053    2.2377947   -3.8435536   -1.6057588    1.1643268 
    2100          4.2    1.5069023    2.2596837   -3.8651369   -1.6054533    1.0961114 
    2150          4.3    1.4812375     2.221198   -3.8267506   -1.6055527    1.0994188 
    2200          4.4    1.4981682    2.2465865   -3.8526286   -1.6060421    1.0133469 
    2250          4.5    1.4959429    2.2432495   -3.8495599   -1.6063104    1.0780209 
    2300          4.6     1.496935    2.2447371    -3.850894   -1.6061568    1.1289617 
    2350          4.7     1.499045    2.2479013   -3.8534415   -1.6055402    1.1483567 
    2400          4.8    1.5146811    2.2713484   -3.8772661   -1.6059177    1.0742231 
    2450          4.9    1.5082158    2.2616534   -3.8672114    -1.605558    1.0801257 
    2500            5    1.5168333    2.2745758   -3.8802885   -1.6057127    1.0730299 
Loop time of 8.47789 on 1 procs for 2500 steps with 3375 atoms

Performance: 50956.071 tau/day, 294.885 timesteps/s
99.8% CPU use with 1 MPI tasks x no OpenMP threads

MPI task timing breakdown:
Section |  min time  |  avg time  |  max time  |%varavg| %total
---------------------------------------------------------------
Pair    | 7.4339     | 7.4339     | 7.4339     |   0.0 | 87.69
Neigh   | 0.75022    | 0.75022    | 0.75022    |   0.0 |  8.85
Comm    | 0.10261    | 0.10261    | 0.10261    |   0.0 |  1.21
Output  | 0.00080338 | 0.00080338 | 0.00080338 |   0.0 |  0.01
Modify  | 0.16538    | 0.16538    | 0.16538    |   0.0 |  1.95
Other   |            | 0.02497    |            |       |  0.29

Nlocal:        3375.00 ave        3375 max        3375 min
Histogram: 1 0 0 0 0 0 0 0 0 0
Nghost:        5354.00 ave        5354 max        5354 min
Histogram: 1 0 0 0 0 0 0 0 0 0
Neighs:        154103.0 ave      154103 max      154103 min
Histogram: 1 0 0 0 0 0 0 0 0 0

Total # of neighbors = 154103
Ave neighs/atom = 45.660148
Neighbor list builds = 125
Dangerous builds not checked
variable        diff_accum equal ${diff_accum}+${diff_integ}/(3*${loop_iterations})
variable        diff_accum equal 0.0752320827375322+${diff_integ}/(3*${loop_iterations})
variable        diff_accum equal 0.0752320827375322+0.597053206171042/(3*${loop_iterations})
variable        diff_accum equal 0.0752320827375322+0.597053206171042/(3*25)
unfix           fixVACF
write_data      liquid.T${temp}.rho${rho}.data
write_data      liquid.T1.5.rho${rho}.data
write_data      liquid.T1.5.rho0.61.data
System init for write_data ...
print           "" append log.vacf.T${temp}.rho${rho}.txt screen no
print           "" append log.vacf.T1.5.rho${rho}.txt screen no
print           "" append log.vacf.T1.5.rho0.61.txt screen no

next            loop_counter
jump            SELF loop
clear

pair_style	lj/smooth 2.5 3.0

read_data       liquid.T${temp}.rho${rho}.data
read_data       liquid.T1.5.rho${rho}.data
read_data       liquid.T1.5.rho0.61.data
Reading data file ...
  orthogonal box = (0.0000000 0.0000000 0.0000000) to (17.686748 17.686748 17.686748)
  1 by 1 by 1 MPI processor grid
  reading atoms ...
  3375 atoms
  reading velocities ...
  3375 velocities
  read_data CPU = 0.009 seconds

neighbor	0.3 bin
neigh_modify	every 20 delay 0 check no

fix		1 all nve
timestep        0.002
thermo		50

reset_timestep  0
compute         myVACF all vacf

fix             fixVACF all vector 1 c_myVACF[4]
variable        diff_integ equal dt*trap(f_fixVACF)
variable        curVACF equal c_myVACF[4]

variable        step0 equal step
variable        step0 equal $(v_step0)
variable        step0 equal 0
variable        dtime equal (step-${step0})*dt
variable        dtime equal (step-0)*dt
fix             print_vacf all print 2 "${dtime} ${curVACF} ${diff_integ}" append log.vacf.T${temp}.rho${rho}.txt screen no
fix             print_vacf all print 2 "${dtime} ${curVACF} ${diff_integ}" append log.vacf.T1.5.rho${rho}.txt screen no
fix             print_vacf all print 2 "${dtime} ${curVACF} ${diff_integ}" append log.vacf.T1.5.rho0.61.txt screen no
thermo_style	custom step time temp ke pe etotal press

run             ${loop_length}
run             2500
Neighbor list info ...
  update every 20 steps, delay 0 steps, check no
  max neighbors/atom: 2000, page size: 100000
  master list distance cutoff = 3.3
  ghost atom cutoff = 3.3
  binsize = 1.65, bins = 11 11 11
  1 neighbor lists, perpetual/occasional/extra = 1 0 0
  (1) pair lj/smooth, perpetual
      attributes: half, newton on
      pair build: half/bin/atomonly/newton
      stencil: half/bin/3d
      bin: standard
Per MPI rank memory allocation (min/avg/max) = 3.545 | 3.545 | 3.545 Mbytes
Step Time Temp KinEng PotEng TotEng Press 
       0            0    1.5168333    2.2745758   -3.8802885   -1.6057127    1.0730299 
      50          0.1    1.5051502    2.2570564   -3.8630469   -1.6059905    1.1695109 
     100          0.2      1.50448    2.2560514   -3.8622148   -1.6061635    1.1807216 
     150          0.3    1.5040556     2.255415   -3.8615889   -1.6061739    1.1501369 
     200          0.4    1.5250915    2.2869594   -3.8932236   -1.6062642    1.0308923 
     250          0.5    1.4989528     2.247763   -3.8543516   -1.6065886    1.1011181 
     300          0.6    1.5039052    2.2551895    -3.861172   -1.6059825     1.042916 
     350          0.7    1.4799839    2.2193181   -3.8250948   -1.6057767    1.1624083 
     400          0.8    1.4948914    2.2416727   -3.8466742   -1.6050015    1.1091722 
     450          0.9    1.4887504    2.2324639   -3.8380011   -1.6055372     1.118876 
     500            1    1.4837217     2.224923   -3.8311911   -1.6062681    1.1608425 
     550          1.1    1.4951402    2.2420458   -3.8478859   -1.6058401    1.1261835 
     600          1.2    1.4973207    2.2453156    -3.851346   -1.6060304    1.1145813 
     650          1.3     1.493324    2.2393222   -3.8447954   -1.6054732    1.1326724 
     700          1.4    1.5125739    2.2681886   -3.8736007   -1.6054122    1.0228515 
     750          1.5    1.4975849    2.2457118    -3.851668   -1.6059562    1.0841471 
     800          1.6    1.4926547    2.2383186   -3.8443338   -1.6060152    1.0907213 
     850          1.7    1.4985723    2.2471924   -3.8530779   -1.6058854    1.0473484 
     900          1.8    1.4816044     2.221748   -3.8273665   -1.6056185    1.1539226 
     950          1.9    1.4866855    2.2293675   -3.8346767   -1.6053092    1.1021501 
    1000            2    1.5079181    2.2612069   -3.8669839    -1.605777   0.97477287 
    1050          2.1    1.4817187    2.2219196   -3.8277013   -1.6057817    1.0831395 
    1100          2.2    1.4952501    2.2422106   -3.8478725   -1.6056619    1.0086257 
    1150          2.3    1.4894396    2.2334975   -3.8390125    -1.605515    1.1094669 
    1200          2.4    1.4960461    2.2434043   -3.8486188   -1.6052145    1.1099299 
    1250          2.5    1.5158964    2.2731709   -3.8785835   -1.6054126   0.98641089 
    1300          2.6    1.5042289    2.2556748   -3.8610139    -1.605339    1.0788726 
    1350          2.7    1.5027025    2.2533859   -3.8589795   -1.6055936    1.0939733 
    1400          2.8    1.4960934    2.2434751    -3.849169   -1.6056939    1.1151893 
    1450          2.9    1.4807591    2.2204805   -3.8260372   -1.6055567    1.1583973 
    1500            3    1.5065399    2.2591403   -3.8650618   -1.6059215    1.0101897 
    1550          3.1    1.4829475    2.2237621   -3.8296885   -1.6059264    1.1043455 
    1600          3.2    1.4968099    2.2445497   -3.8506621   -1.6061124    1.0341657 
    1650          3.3     1.496271    2.2437416   -3.8497809   -1.6060394    1.0677612 
    1700          3.4     1.497822    2.2460672   -3.8517064   -1.6056392    1.0813598 
    1750          3.5    1.5067799    2.2595001   -3.8649705   -1.6054704    1.0361343 
[...]
    1850          3.7    1.4717884    2.2070285   -3.8126108   -1.6055823    1.1770722 
    1900          3.8    1.4927177    2.2384132   -3.8440902    -1.605677     1.085007 
    1950          3.9    1.5035875     2.254713   -3.8605231     -1.60581    1.0644964 
    2000            4    1.4839601    2.2252807     -3.83132   -1.6060393    1.1589706 
    2050          4.1    1.4994377    2.2484902   -3.8542939   -1.6058037    1.0670499 
    2100          4.2    1.4899355    2.2342411   -3.8401191   -1.6058781    1.1003504 
    2150          4.3    1.4991611    2.2480754   -3.8541562   -1.6060809    1.1020612 
    2200          4.4    1.4911089    2.2360007   -3.8419026   -1.6059019    1.1555381 
    2250          4.5     1.495839    2.2430937   -3.8488261   -1.6057324    1.1378959 
    2300          4.6    1.4945913    2.2412226   -3.8470593   -1.6058366    1.1099999 
    2350          4.7    1.5082364    2.2616842   -3.8674996   -1.6058154    1.0439844 
    2400          4.8    1.5015334    2.2516328   -3.8574059   -1.6057731    1.0591093 
    2450          4.9    1.4832359    2.2241946   -3.8301206    -1.605926    1.1621119 
    2500            5    1.5049957    2.2568247   -3.8626803   -1.6058556     1.076254 
Loop time of 8.503 on 1 procs for 2500 steps with 3375 atoms

Performance: 50805.606 tau/day, 294.014 timesteps/s
99.8% CPU use with 1 MPI tasks x no OpenMP threads

MPI task timing breakdown:
Section |  min time  |  avg time  |  max time  |%varavg| %total
---------------------------------------------------------------
Pair    | 7.4592     | 7.4592     | 7.4592     |   0.0 | 87.72
Neigh   | 0.75463    | 0.75463    | 0.75463    |   0.0 |  8.87
Comm    | 0.10166    | 0.10166    | 0.10166    |   0.0 |  1.20
Output  | 0.00077803 | 0.00077803 | 0.00077803 |   0.0 |  0.01
Modify  | 0.16188    | 0.16188    | 0.16188    |   0.0 |  1.90
Other   |            | 0.02482    |            |       |  0.29

Nlocal:        3375.00 ave        3375 max        3375 min
Histogram: 1 0 0 0 0 0 0 0 0 0
Nghost:        5331.00 ave        5331 max        5331 min
Histogram: 1 0 0 0 0 0 0 0 0 0
Neighs:        153569.0 ave      153569 max      153569 min
Histogram: 1 0 0 0 0 0 0 0 0 0

Total # of neighbors = 153569
Ave neighs/atom = 45.501926
Neighbor list builds = 125
Dangerous builds not checked
variable        diff_accum equal ${diff_accum}+${diff_integ}/(3*${loop_iterations})
variable        diff_accum equal 0.200633031217965+${diff_integ}/(3*${loop_iterations})
variable        diff_accum equal 0.200633031217965+0.621752227222899/(3*${loop_iterations})
variable        diff_accum equal 0.200633031217965+0.621752227222899/(3*25)
unfix           fixVACF
write_data      liquid.T${temp}.rho${rho}.data
write_data      liquid.T1.5.rho${rho}.data
write_data      liquid.T1.5.rho0.61.data
System init for write_data ...
print           "" append log.vacf.T${temp}.rho${rho}.txt screen no
print           "" append log.vacf.T1.5.rho${rho}.txt screen no
print           "" append log.vacf.T1.5.rho0.61.txt screen no

next            loop_counter
jump            SELF loop
clear

pair_style	lj/smooth 2.5 3.0

read_data       liquid.T${temp}.rho${rho}.data
read_data       liquid.T1.5.rho${rho}.data
read_data       liquid.T1.5.rho0.61.data
Reading data file ...
  orthogonal box = (0.0000000 0.0000000 0.0000000) to (17.686748 17.686748 17.686748)
  1 by 1 by 1 MPI processor grid
  reading atoms ...
  3375 atoms
  reading velocities ...
  3375 velocities
  read_data CPU = 0.009 seconds

neighbor	0.3 bin
neigh_modify	every 20 delay 0 check no

fix		1 all nve
timestep        0.002
thermo		50

reset_timestep  0
compute         myVACF all vacf

fix             fixVACF all vector 1 c_myVACF[4]
variable        diff_integ equal dt*trap(f_fixVACF)
variable        curVACF equal c_myVACF[4]

variable        step0 equal step
variable        step0 equal $(v_step0)
variable        step0 equal 0
variable        dtime equal (step-${step0})*dt
variable        dtime equal (step-0)*dt
fix             print_vacf all print 2 "${dtime} ${curVACF} ${diff_integ}" append log.vacf.T${temp}.rho${rho}.txt screen no
fix             print_vacf all print 2 "${dtime} ${curVACF} ${diff_integ}" append log.vacf.T1.5.rho${rho}.txt screen no
fix             print_vacf all print 2 "${dtime} ${curVACF} ${diff_integ}" append log.vacf.T1.5.rho0.61.txt screen no
thermo_style	custom step time temp ke pe etotal press

run             ${loop_length}
run             2500
Neighbor list info ...
  update every 20 steps, delay 0 steps, check no
  max neighbors/atom: 2000, page size: 100000
  master list distance cutoff = 3.3
  ghost atom cutoff = 3.3
  binsize = 1.65, bins = 11 11 11
  1 neighbor lists, perpetual/occasional/extra = 1 0 0
  (1) pair lj/smooth, perpetual
      attributes: half, newton on
      pair build: half/bin/atomonly/newton
      stencil: half/bin/3d
      bin: standard
Per MPI rank memory allocation (min/avg/max) = 3.544 | 3.544 | 3.544 Mbytes
Step Time Temp KinEng PotEng TotEng Press 
       0            0    1.5049957    2.2568247   -3.8626803   -1.6058556     1.076254 
      50          0.1    1.4924838    2.2380624   -3.8438878   -1.6058253    1.1244538 
     100          0.2    1.5182479    2.2766971   -3.8821021    -1.605405   0.99620894 
     150          0.3     1.499763    2.2489779   -3.8539775   -1.6049996    1.0907487 
     200          0.4    1.5013388     2.251341   -3.8565383   -1.6051973    1.0921658 
     250          0.5    1.4877129    2.2309081   -3.8362869   -1.6053788    1.1433335 
     300          0.6    1.4931313    2.2390334   -3.8442972   -1.6052638     1.112562 
     350          0.7    1.4826106     2.223257    -3.828867     -1.60561    1.1542978 
     400          0.8     1.490058    2.2344248    -3.840194   -1.6057693    1.1201465 
     450          0.9    1.4768793    2.2146626   -3.8204955   -1.6058329    1.1823349 
     500            1    1.4965091    2.2440985   -3.8502469   -1.6061484    1.0771341 
     550          1.1    1.4967418    2.2444475   -3.8501485    -1.605701    1.0754135 
     600          1.2     1.503117    2.2540075   -3.8600526   -1.6060451     1.050365 
     650          1.3    1.5023357    2.2528359   -3.8585889    -1.605753    1.0830184 
     700          1.4    1.4955546    2.2426672   -3.8482692   -1.6056021    1.0938003 
     750          1.5    1.4982777    2.2467506   -3.8522314   -1.6054808    1.0687958 
     800          1.6    1.5044682    2.2560336   -3.8614951   -1.6054615    1.0379916 
     850          1.7    1.4981927    2.2466232   -3.8522964   -1.6056732    1.0546131 
     900          1.8    1.4848752    2.2266529   -3.8325167   -1.6058638    1.1430862 
     950          1.9    1.5148948     2.271669   -3.8777782   -1.6061093    1.0031047 
    1000            2    1.4981982    2.2466315   -3.8528792   -1.6062477    1.0762268 
    1050          2.1    1.4870107    2.2298551   -3.8359368   -1.6060817    1.1366592 
    1100          2.2    1.5084943     2.262071   -3.8681409   -1.6060699    1.0263195 
    1150          2.3    1.4814205    2.2214723   -3.8278319   -1.6063595      1.13984 
    1200          2.4    1.4850235    2.2268752   -3.8326594   -1.6057842    1.1281561 
    1250          2.5    1.5009364    2.2507376   -3.8562392   -1.6055017    1.0623681 
    1300          2.6    1.4905545    2.2351693   -3.8408853    -1.605716    1.1263493 
    1350          2.7    1.4877652    2.2309866   -3.8365251   -1.6055385    1.1306565 
    1400          2.8    1.4939333     2.240236   -3.8463625   -1.6061265    1.0780141 
    1450          2.9     1.500455    2.2500156   -3.8558566    -1.605841    1.0571437 
    1500            3     1.501168    2.2510849   -3.8567937   -1.6057088    1.0518272 
    1550          3.1    1.4999574    2.2492695    -3.855027   -1.6057575    1.0305186 
    1600          3.2    1.4828843    2.2236674   -3.8292957   -1.6056283    1.1029274 
    1650          3.3    1.5101475    2.2645501   -3.8703941    -1.605844    1.0160509 
    1700          3.4    1.4965512    2.2441617   -3.8500253   -1.6058635    1.1215801 
    1750          3.5    1.4995946    2.2487254   -3.8545483   -1.6058229    1.1354522 
    1800          3.6    1.5006343    2.2502846   -3.8559435   -1.6056589    1.1147771 
    1850          3.7    1.4905637     2.235183   -3.8406042   -1.6054212    1.1197479 
    1900          3.8    1.4982236    2.2466695   -3.8528251   -1.6061556    1.0965631 
    1950          3.9    1.4983766     2.246899   -3.8529392   -1.6060402    1.0831452 
    2000            4    1.4817488    2.2219647   -3.8274509   -1.6054862     1.101695 
    2050          4.1    1.5056544    2.2578125   -3.8630951   -1.6052826     1.016919 
    2100          4.2    1.5074235    2.2604653   -3.8659488   -1.6054836      1.06519 
    2150          4.3    1.4958579    2.2431221   -3.8488379   -1.6057159    1.1453292 
    2200          4.4    1.4975766    2.2456993   -3.8514178   -1.6057184    1.1315426 
    2250          4.5    1.4896278    2.2337797   -3.8393913   -1.6056116    1.1118921 
    2300          4.6    1.5101098    2.2644935   -3.8701202   -1.6056267    1.0067599 
    2350          4.7    1.5162126     2.273645   -3.8793056   -1.6056607   0.98976802 
    2400          4.8     1.500194    2.2496242   -3.8548459   -1.6052217    1.0482285 
    2450          4.9    1.5052559    2.2572148   -3.8630214   -1.6058066    1.0339389 
    2500            5    1.4818863    2.2221708   -3.8281778    -1.606007    1.1776336 
Loop time of 8.49853 on 1 procs for 2500 steps with 3375 atoms

Performance: 50832.291 tau/day, 294.168 timesteps/s
99.6% CPU use with 1 MPI tasks x no OpenMP threads

MPI task timing breakdown:
Section |  min time  |  avg time  |  max time  |%varavg| %total
---------------------------------------------------------------
Pair    | 7.4599     | 7.4599     | 7.4599     |   0.0 | 87.78
Neigh   | 0.74748    | 0.74748    | 0.74748    |   0.0 |  8.80
Comm    | 0.10193    | 0.10193    | 0.10193    |   0.0 |  1.20
Output  | 0.00077602 | 0.00077602 | 0.00077602 |   0.0 |  0.01
Modify  | 0.16365    | 0.16365    | 0.16365    |   0.0 |  1.93
Other   |            | 0.02476    |            |       |  0.29

Nlocal:        3375.00 ave        3375 max        3375 min
Histogram: 1 0 0 0 0 0 0 0 0 0
Nghost:        5362.00 ave        5362 max        5362 min
Histogram: 1 0 0 0 0 0 0 0 0 0
Neighs:        153638.0 ave      153638 max      153638 min
Histogram: 1 0 0 0 0 0 0 0 0 0

Total # of neighbors = 153638
Ave neighs/atom = 45.522370
Neighbor list builds = 125
Dangerous builds not checked
variable        diff_accum equal ${diff_accum}+${diff_integ}/(3*${loop_iterations})
variable        diff_accum equal 0.20892306091427+${diff_integ}/(3*${loop_iterations})
variable        diff_accum equal 0.20892306091427+0.707198936818527/(3*${loop_iterations})
variable        diff_accum equal 0.20892306091427+0.707198936818527/(3*25)
unfix           fixVACF
write_data      liquid.T${temp}.rho${rho}.data
write_data      liquid.T1.5.rho${rho}.data
write_data      liquid.T1.5.rho0.61.data
System init for write_data ...
print           "" append log.vacf.T${temp}.rho${rho}.txt screen no
print           "" append log.vacf.T1.5.rho${rho}.txt screen no
print           "" append log.vacf.T1.5.rho0.61.txt screen no

next            loop_counter
jump            SELF loop
clear

pair_style	lj/smooth 2.5 3.0

read_data       liquid.T${temp}.rho${rho}.data
read_data       liquid.T1.5.rho${rho}.data
read_data       liquid.T1.5.rho0.61.data
Reading data file ...
  orthogonal box = (0.0000000 0.0000000 0.0000000) to (17.686748 17.686748 17.686748)
  1 by 1 by 1 MPI processor grid
  reading atoms ...
  3375 atoms
  reading velocities ...
  3375 velocities
  read_data CPU = 0.009 seconds

neighbor	0.3 bin
neigh_modify	every 20 delay 0 check no

fix		1 all nve
timestep        0.002
thermo		50

reset_timestep  0
compute         myVACF all vacf

fix             fixVACF all vector 1 c_myVACF[4]
variable        diff_integ equal dt*trap(f_fixVACF)
variable        curVACF equal c_myVACF[4]

variable        step0 equal step
variable        step0 equal $(v_step0)
variable        step0 equal 0
variable        dtime equal (step-${step0})*dt
variable        dtime equal (step-0)*dt
fix             print_vacf all print 2 "${dtime} ${curVACF} ${diff_integ}" append log.vacf.T${temp}.rho${rho}.txt screen no
fix             print_vacf all print 2 "${dtime} ${curVACF} ${diff_integ}" append log.vacf.T1.5.rho${rho}.txt screen no
fix             print_vacf all print 2 "${dtime} ${curVACF} ${diff_integ}" append log.vacf.T1.5.rho0.61.txt screen no
thermo_style	custom step time temp ke pe etotal press

run             ${loop_length}
run             2500
Neighbor list info ...
  update every 20 steps, delay 0 steps, check no
  max neighbors/atom: 2000, page size: 100000
  master list distance cutoff = 3.3
  ghost atom cutoff = 3.3
  binsize = 1.65, bins = 11 11 11
  1 neighbor lists, perpetual/occasional/extra = 1 0 0
  (1) pair lj/smooth, perpetual
      attributes: half, newton on
      pair build: half/bin/atomonly/newton
      stencil: half/bin/3d
      bin: standard
Per MPI rank memory allocation (min/avg/max) = 3.551 | 3.551 | 3.551 Mbytes
Step Time Temp KinEng PotEng TotEng Press 
       0            0    1.4818863    2.2221708   -3.8281778    -1.606007    1.1776336 
      50          0.1    1.5071763    2.2600946   -3.8660643   -1.6059697    1.0809814 
     100          0.2    1.4814214    2.2214736   -3.8270729   -1.6055993    1.2072464 
     150          0.3    1.4995724    2.2486922   -3.8544076   -1.6057154    1.1108218 
     200          0.4    1.4962737    2.2437455   -3.8491909   -1.6054453    1.1117391 
     250          0.5     1.495947    2.2432557    -3.848769   -1.6055133     1.078504 
     300          0.6    1.5059389     2.258239   -3.8639839   -1.6057449      1.03457 
     350          0.7    1.5020972    2.2524783   -3.8583613    -1.605883    1.0475049 
     400          0.8    1.4893156    2.2333116   -3.8390022   -1.6056906    1.1121732 
     450          0.9    1.5191374     2.278031   -3.8836648   -1.6056338    0.9963048 
     500            1       1.4904    2.2349376   -3.8409204   -1.6059828     1.149942 
     550          1.1    1.5096437    2.2637946   -3.8695802   -1.6057856    1.0551038 
     600          1.2    1.5040285    2.2553743   -3.8613924   -1.6060181    1.1177021 
     650          1.3    1.5065854    2.2592085   -3.8651571   -1.6059486    1.1116931 
     700          1.4    1.4912791    2.2362559   -3.8423724   -1.6061165    1.1676139 
     750          1.5    1.4959072    2.2431959   -3.8491593   -1.6059634    1.1402468 
     800          1.6    1.5181799    2.2765951    -3.882649   -1.6060538    1.0231934 
     850          1.7    1.5220445    2.2823902   -3.8878449   -1.6054546   0.98883972 
     900          1.8    1.5074529    2.2605093    -3.866214   -1.6057047    1.0615432 
     950          1.9    1.4863628    2.2288835   -3.8346626    -1.605779    1.1550504 
    1000            2    1.5063458    2.2588491   -3.8644724   -1.6056233    1.0439394 
    1050          2.1    1.5104377    2.2649852   -3.8704233   -1.6054381    1.0356402 
    1100          2.2    1.4830831    2.2239654   -3.8299575   -1.6059921    1.2042371 
    1150          2.3    1.4878173    2.2310648   -3.8368265   -1.6057618    1.1776774 
    1200          2.4    1.4882415    2.2317008    -3.837432   -1.6057312    1.1435849 
    1250          2.5    1.4749992    2.2118432   -3.8175434   -1.6057002    1.1845803 
    1300          2.6    1.5048176    2.2565575   -3.8620767   -1.6055192    1.0738992 
    1350          2.7    1.5139506     2.270253   -3.8756532   -1.6054001    1.0490188 
    1400          2.8    1.4990766    2.2479487   -3.8535636   -1.6056149    1.1238878 
    1450          2.9    1.5152326    2.2721755   -3.8779197   -1.6057442   0.98707023 
    1500            3    1.4939613     2.240278    -3.845936    -1.605658     1.109175 
    1550          3.1    1.4850405    2.2269008   -3.8322344   -1.6053336    1.1415381 
    1600          3.2    1.5007819    2.2505058    -3.856237   -1.6057312     1.054044 
    1650          3.3    1.5021932    2.2526221   -3.8583824   -1.6057603     1.009664 
    1700          3.4    1.4954592    2.2425241    -3.848167   -1.6056429    1.0945463 
    1750          3.5    1.4930714    2.2389435   -3.8446033   -1.6056599    1.1032855 
    1800          3.6    1.4818517    2.2221189   -3.8275525   -1.6054336    1.1839822 
    1850          3.7    1.5074384    2.2604877   -3.8662602   -1.6057725    1.0665433 
    1900          3.8    1.5017903     2.252018   -3.8577699    -1.605752    1.0697685 
    1950          3.9    1.4876775    2.2308551   -3.8363553   -1.6055002     1.108162 
    2000            4    1.5015172    2.2516085   -3.8576737   -1.6060652    1.1034791 
    2050          4.1    1.4917506    2.2369629   -3.8428545   -1.6058916    1.1212284 
    2100          4.2     1.490767    2.2354879   -3.8412296   -1.6057417    1.1266323 
    2150          4.3    1.5191727    2.2780839   -3.8838366   -1.6057527   0.95112903 
    2200          4.4    1.4951448    2.2420527   -3.8477543   -1.6057017    1.0764359 
    2250          4.5    1.5047369    2.2564366   -3.8615484   -1.6051118    1.0423751 
    2300          4.6    1.4863801    2.2289096   -3.8344622   -1.6055527    1.1555749 
    2350          4.7    1.4977717    2.2459919   -3.8512222   -1.6052303    1.1024674 
    2400          4.8    1.5000251     2.249371    -3.854834    -1.605463    1.0780602 
    2450          4.9    1.4933563    2.2393708   -3.8452217   -1.6058509    1.1029231 
    2500            5     1.506155     2.258563   -3.8643151    -1.605752    1.0210612 
Loop time of 8.47668 on 1 procs for 2500 steps with 3375 atoms

Performance: 50963.342 tau/day, 294.927 timesteps/s
99.7% CPU use with 1 MPI tasks x no OpenMP threads

MPI task timing breakdown:
Section |  min time  |  avg time  |  max time  |%varavg| %total
---------------------------------------------------------------
Pair    | 7.4285     | 7.4285     | 7.4285     |   0.0 | 87.63
Neigh   | 0.75275    | 0.75275    | 0.75275    |   0.0 |  8.88
Comm    | 0.10157    | 0.10157    | 0.10157    |   0.0 |  1.20
Output  | 0.00079612 | 0.00079612 | 0.00079612 |   0.0 |  0.01
Modify  | 0.1682     | 0.1682     | 0.1682     |   0.0 |  1.98
Other   |            | 0.02488    |            |       |  0.29

Nlocal:        3375.00 ave        3375 max        3375 min
Histogram: 1 0 0 0 0 0 0 0 0 0
Nghost:        5282.00 ave        5282 max        5282 min
Histogram: 1 0 0 0 0 0 0 0 0 0
Neighs:        153635.0 ave      153635 max      153635 min
Histogram: 1 0 0 0 0 0 0 0 0 0

Total # of neighbors = 153635
Ave neighs/atom = 45.521481
Neighbor list builds = 125
Dangerous builds not checked
variable        diff_accum equal ${diff_accum}+${diff_integ}/(3*${loop_iterations})
variable        diff_accum equal 0.21835238007185+${diff_integ}/(3*${loop_iterations})
variable        diff_accum equal 0.21835238007185+0.607080035421609/(3*${loop_iterations})
variable        diff_accum equal 0.21835238007185+0.607080035421609/(3*25)
unfix           fixVACF
write_data      liquid.T${temp}.rho${rho}.data
write_data      liquid.T1.5.rho${rho}.data
write_data      liquid.T1.5.rho0.61.data
System init for write_data ...
print           "" append log.vacf.T${temp}.rho${rho}.txt screen no
print           "" append log.vacf.T1.5.rho${rho}.txt screen no
print           "" append log.vacf.T1.5.rho0.61.txt screen no

next            loop_counter
jump            SELF loop

print           "Diffusivity estimate (GK): ${diff_accum}" append log.vacf.T${temp}.rho${rho}.txt
print           "Diffusivity estimate (GK): ${diff_accum}" append log.vacf.T1.5.rho${rho}.txt
print           "Diffusivity estimate (GK): ${diff_accum}" append log.vacf.T1.5.rho0.61.txt
Diffusivity estimate (GK): 0.226446780544138
Total wall time: 0:03:34
