units		lj
atom_style	atomic

pair_style	lj/smooth 2.5 3.0

read_data       liquid.T${temp}.rho${rho}.data
read_data       liquid.T1.4.rho${rho}.data
read_data       liquid.T1.4.rho0.67.data
Reading data file ...
  orthogonal box = (0.0000000 0.0000000 0.0000000) to (17.142191 17.142191 17.142191)
  1 by 1 by 1 MPI processor grid
  reading atoms ...
  3375 atoms
  reading velocities ...
  3375 velocities
  read_data CPU = 0.010 seconds

neighbor	0.3 bin
neigh_modify	every 20 delay 0 check no

fix		1 all nve

timestep	0.002

reset_timestep  0

compute		msd all msd
variable        msd_xyz equal c_msd[4]
variable        step0 equal step
variable        step0 equal ${step0}
variable        step0 equal 0
variable        dtime equal (step-${step0})*dt
variable        dtime equal (step-0)*dt
variable        diffus equal v_msd_xyz/(6*(v_dtime+1e-12))
thermo_style	custom step time temp ke pe etotal press c_msd[4]
thermo          50

fix             print_msd all print 50 "${dtime} ${msd_xyz} ${diffus}" file msd.T${temp}.rho${rho}.log screen no
fix             print_msd all print 50 "${dtime} ${msd_xyz} ${diffus}" file msd.T1.4.rho${rho}.log screen no
fix             print_msd all print 50 "${dtime} ${msd_xyz} ${diffus}" file msd.T1.4.rho0.67.log screen no
run		${sim_steps}
run		5000
Neighbor list info ...
  update every 20 steps, delay 0 steps, check no
  max neighbors/atom: 2000, page size: 100000
  master list distance cutoff = 3.3
  ghost atom cutoff = 3.3
  binsize = 1.65, bins = 11 11 11
  1 neighbor lists, perpetual/occasional/extra = 1 0 0
  (1) pair lj/smooth, perpetual
      attributes: half, newton on
      pair build: half/bin/atomonly/newton
      stencil: half/bin/3d
      bin: standard
Per MPI rank memory allocation (min/avg/max) = 3.555 | 3.555 | 3.555 Mbytes
Step Time Temp KinEng PotEng TotEng Press c_msd[4] 
       0            0    1.4018462    2.1021463   -4.2756494   -2.1735031     1.287015            0 
      50          0.1    1.3794231    2.0685215   -4.2418802   -2.1733587    1.4167378  0.036214059 
     100          0.2    1.3741839    2.0606651   -4.2336576   -2.1729925    1.4227513   0.10928877 
     150          0.3    1.4040364    2.1054306   -4.2780126    -2.172582    1.2747954   0.19046066 
     200          0.4    1.3935939    2.0897715   -4.2625486   -2.1727771    1.3237844   0.27795294 
     250          0.5    1.3750662    2.0619882   -4.2346419   -2.1726537      1.43007   0.36865556 
     300          0.6     1.390516     2.085156   -4.2578627   -2.1727067     1.350055   0.45788182 
     350          0.7    1.3826578    2.0733721   -4.2459571   -2.1725849    1.3893663   0.54879922 
     400          0.8    1.3948377    2.0916366   -4.2645773   -2.1729407    1.3022574   0.64245319 
     450          0.9    1.3792541    2.0682682   -4.2409374   -2.1726693    1.3662494   0.73698118 
     500            1    1.3909691    2.0858354   -4.2585368   -2.1727013    1.3480369   0.83125983 
     550          1.1    1.4135097    2.1196363   -4.2921288   -2.1724925    1.2470907   0.92796541 
     600          1.2    1.3970561    2.0949632   -4.2672989   -2.1723357    1.3319523    1.0286904 
     650          1.3    1.4051263    2.1070649   -4.2795297   -2.1724647    1.2909362    1.1288391 
     700          1.4    1.4073519    2.1104024   -4.2829488   -2.1725464    1.2288413    1.2279139 
     750          1.5    1.3871864    2.0801631   -4.2526539   -2.1724908    1.3644667    1.3310231 
     800          1.6    1.3953472    2.0924007   -4.2647746   -2.1723739      1.38429    1.4318511 
     850          1.7     1.386734    2.0794847   -4.2519958   -2.1725111    1.4257801    1.5317553 
     900          1.8    1.3970483    2.0949516   -4.2675301   -2.1725785    1.3466531    1.6270005 
     950          1.9    1.3850619    2.0769772   -4.2499901   -2.1730129    1.3749686    1.7251291 
    1000            2    1.4076668    2.1108746   -4.2840135   -2.1731389    1.2415318    1.8285786 
    1050          2.1    1.3812137    2.0712067   -4.2442346   -2.1730279    1.4040594     1.932981 
    1100          2.2    1.4027597    2.1035161   -4.2763912   -2.1728751    1.3248733    2.0308694 
    1150          2.3    1.4125084    2.1181349   -4.2909169    -2.172782     1.231638    2.1324342 
    1200          2.4    1.3881301    2.0815781   -4.2543477   -2.1727695    1.3686586    2.2463488 
    1250          2.5     1.365291    2.0473297   -4.2206103   -2.1732806    1.5323057    2.3579858 
    1300          2.6    1.3951911    2.0921665   -4.2653726   -2.1732061    1.3522875    2.4648734 
    1350          2.7    1.3866016    2.0792861   -4.2527183   -2.1734322     1.424953    2.5725773 
    1400          2.8     1.417666    2.1258689   -4.2994403   -2.1735714    1.2434638    2.6760333 
    1450          2.9    1.3969939      2.09487   -4.2680195   -2.1731494    1.3188977    2.7825271 
    1500            3    1.3761075    2.0635496   -4.2366336    -2.173084    1.4189414    2.8865157 
    1550          3.1    1.3940894    2.0905145    -4.263292   -2.1727775     1.314998    2.9845192 
    1600          3.2    1.4000881      2.09951    -4.272352   -2.1728421    1.2906052    3.0812196 
    1650          3.3    1.3886596    2.0823722   -4.2553854   -2.1730132    1.3426186    3.1842721 
    1700          3.4    1.3763386    2.0638962   -4.2371118   -2.1732155    1.4239735    3.2889548 
    1750          3.5    1.3797751    2.0690494      -4.2425   -2.1734506    1.4085462    3.3911319 
    1800          3.6    1.3864812    2.0791055   -4.2518835    -2.172778    1.3691536    3.4934469 
    1850          3.7    1.3773945    2.0654795    -4.238168   -2.1726885    1.4121743    3.6012165 
    1900          3.8    1.3994668    2.0985782   -4.2718197   -2.1732415    1.3003192    3.7111964 
    1950          3.9    1.3735296    2.0596839   -4.2328477   -2.1731638    1.3865219    3.8238107 
    2000            4    1.3852426    2.0772482   -4.2504047   -2.1731565    1.3471829    3.9309603 
    2050          4.1    1.4017816    2.1020493   -4.2750435   -2.1729942    1.3060166    4.0346035 
    2100          4.2    1.3936548    2.0898628     -4.26307   -2.1732072    1.3428329    4.1396522 
    2150          4.3    1.3901434    2.0845973    -4.257991   -2.1733937    1.3521224    4.2463839 
    2200          4.4    1.3878266     2.081123   -4.2541456   -2.1730225    1.4280766    4.3535294 
    2250          4.5    1.3888862    2.0827121   -4.2555785   -2.1728664    1.4324041    4.4582789 
    2300          4.6     1.399113    2.0980476    -4.270803   -2.1727553    1.3750616    4.5720869 
    2350          4.7    1.4036302    2.1048215   -4.2776592   -2.1728377    1.3095037     4.677616 
    2400          4.8     1.405585    2.1077529   -4.2804487   -2.1726958    1.3017476    4.7770114 
    2450          4.9    1.4224274    2.1330089   -4.3059877   -2.1729788    1.2216957    4.8873605 
    2500            5    1.3954043    2.0924862    -4.265692   -2.1732057     1.374337    5.0002925 
    2550          5.1    1.4029834    2.1038515   -4.2771126   -2.1732611    1.3166881    5.1137797 
    2600          5.2     1.397715    2.0959513   -4.2695106   -2.1735593    1.3402749    5.2167128 
    2650          5.3    1.3967792     2.094548   -4.2678456   -2.1732975    1.3842717     5.322435 
    2700          5.4    1.3860504    2.0784596   -4.2515284   -2.1730688    1.4644276    5.4132081 
    2750          5.5    1.3805871    2.0702671   -4.2435039   -2.1732368    1.4493429    5.5021568 
    2800          5.6    1.3800056    2.0693951   -4.2423994   -2.1730044    1.4397759    5.6048859 
    2850          5.7    1.3973892    2.0954628   -4.2686241   -2.1731613    1.3271395     5.715343 
    2900          5.8    1.4052691     2.107279   -4.2804139   -2.1731349    1.2617763    5.8142266 
    2950          5.9    1.3973058    2.0953377   -4.2681257   -2.1727881    1.3241846    5.9158496 
    3000            6    1.3914871    2.0866122   -4.2596729   -2.1730607    1.3560153     6.013282 
    3050          6.1    1.3975246    2.0956657   -4.2686833   -2.1730175    1.3422045     6.114996 
    3100          6.2    1.3696694    2.0538953   -4.2269431   -2.1730477    1.4753779    6.2165673 
    3150          6.3    1.3868934    2.0797237   -4.2529204   -2.1731966    1.3808186    6.3103779 
    3200          6.4    1.3896628    2.0838765   -4.2575112   -2.1736346    1.3462752    6.3937809 
    3250          6.5    1.3913108    2.0863478   -4.2593612   -2.1730134    1.3852541    6.4870504 
    3300          6.6    1.3879573     2.081319   -4.2543778   -2.1730588    1.3969334     6.581969 
    3350          6.7     1.395532    2.0926778   -4.2655644   -2.1728866    1.3259099    6.6846209 
    3400          6.8    1.3894633    2.0835774   -4.2561744   -2.1725971    1.3573016    6.7990003 
    3450          6.9    1.3827878    2.0735672   -4.2463729   -2.1728057    1.3655338    6.9066428 
    3500            7    1.3907812    2.0855537   -4.2583655   -2.1728118    1.3166983    7.0046891 
    3550          7.1    1.3847284    2.0764771   -4.2497124   -2.1732353    1.3397389    7.1098137 
    3600          7.2    1.3711876     2.056172   -4.2296162   -2.1734442    1.4180935    7.2090133 
    3650          7.3    1.3839692    2.0753387   -4.2490479   -2.1737093    1.3842233    7.3094503 
    3700          7.4    1.4056828    2.1078994   -4.2812561   -2.1733567    1.2723389    7.4138282 
    3750          7.5    1.4033388    2.1043845   -4.2777674   -2.1733829    1.3081311    7.5151027 
    3800          7.6    1.3988621    2.0976714   -4.2702929   -2.1726215    1.3635111    7.6098461 
    3850          7.7    1.4041137    2.1055464   -4.2783744    -2.172828    1.3181264    7.7208807 
    3900          7.8     1.393813       2.0901   -4.2630051   -2.1729051    1.3425271     7.827664 
    3950          7.9     1.394308    2.0908423   -4.2637341   -2.1728917    1.3155861    7.9289772 
    4000            8     1.393286    2.0893097   -4.2623556   -2.1730459     1.337298    8.0219138 
    4050          8.1    1.3828255    2.0736237   -4.2462621   -2.1726384    1.4119335    8.0963994 
    4100          8.2    1.3890207    2.0829138   -4.2555855   -2.1726718    1.3659063    8.1901372 
    4150          8.3    1.4020453    2.1024449   -4.2753541   -2.1729092    1.3163541    8.3036464 
    4200          8.4    1.4149015    2.1217234   -4.2944035   -2.1726801    1.2346452    8.4087526 
    4250          8.5    1.3881338    2.0815837   -4.2542341   -2.1726504    1.3563893    8.4998364 
    4300          8.6    1.4025015    2.1031289    -4.276229   -2.1731001    1.2992708    8.6027834 
    4350          8.7    1.4025069     2.103137   -4.2760535   -2.1729165    1.2867055    8.7117123 
    4400          8.8    1.3814851    2.0716137   -4.2444688   -2.1728552    1.4159105    8.8168719 
    4450          8.9    1.3906129    2.0853013   -4.2581725   -2.1728712    1.3583709    8.9195333 
    4500            9    1.4230879    2.1339994   -4.3070328   -2.1730333    1.1698845    9.0241435 
    4550          9.1     1.398949    2.0978017   -4.2711343   -2.1733326    1.3426838    9.1398875 
    4600          9.2    1.4073373    2.1103804    -4.283187   -2.1728066    1.2990347    9.2465089 
    4650          9.3    1.4003311    2.0998743   -4.2723759   -2.1725016    1.2996639    9.3459415 
    4700          9.4    1.3926678    2.0883828   -4.2608921   -2.1725093    1.3162781    9.4567369 
    4750          9.5    1.3981805    2.0966494    -4.269317   -2.1726676    1.3055102    9.5774789 
    4800          9.6    1.3817506    2.0720117   -4.2451495   -2.1731377    1.4183862     9.693557 
    4850          9.7    1.3933291    2.0893744   -4.2626541   -2.1732797      1.35627    9.7943657 
    4900          9.8    1.4115173    2.1166486   -4.2900506    -2.173402    1.2369956    9.9003429 
    4950          9.9     1.396548    2.0942013   -4.2672627   -2.1730614     1.350739    10.010699 
    5000           10    1.3862653    2.0787819   -4.2521128   -2.1733309    1.4010169    10.112203 
Loop time of 18.3933 on 1 procs for 5000 steps with 3375 atoms

Performance: 46973.696 tau/day, 271.839 timesteps/s
99.8% CPU use with 1 MPI tasks x no OpenMP threads

MPI task timing breakdown:
Section |  min time  |  avg time  |  max time  |%varavg| %total
---------------------------------------------------------------
Pair    | 16.411     | 16.411     | 16.411     |   0.0 | 89.22
Neigh   | 1.5262     | 1.5262     | 1.5262     |   0.0 |  8.30
Comm    | 0.21417    | 0.21417    | 0.21417    |   0.0 |  1.16
Output  | 0.0040755  | 0.0040755  | 0.0040755  |   0.0 |  0.02
Modify  | 0.18703    | 0.18703    | 0.18703    |   0.0 |  1.02
Other   |            | 0.05125    |            |       |  0.28

Nlocal:        3375.00 ave        3375 max        3375 min
Histogram: 1 0 0 0 0 0 0 0 0 0
Nghost:        5607.00 ave        5607 max        5607 min
Histogram: 1 0 0 0 0 0 0 0 0 0
Neighs:        169168.0 ave      169168 max      169168 min
Histogram: 1 0 0 0 0 0 0 0 0 0

Total # of neighbors = 169168
Ave neighs/atom = 50.123852
Neighbor list builds = 250
Dangerous builds not checked
print           "Diffusivity estimate (MSD): ${diffus}" append msd.T${temp}.rho${rho}.log
print           "Diffusivity estimate (MSD): ${diffus}" append msd.T1.4.rho${rho}.log
print           "Diffusivity estimate (MSD): ${diffus}" append msd.T1.4.rho0.67.log
Diffusivity estimate (MSD): 0.168536719444991

write_data      liquid.T${temp}.rho${rho}.data
write_data      liquid.T1.4.rho${rho}.data
write_data      liquid.T1.4.rho0.67.data
System init for write_data ...
Total wall time: 0:00:18
