units		lj
atom_style	atomic

pair_style	lj/smooth 2.5 3.0

read_data       liquid.T${temp}.rho${rho}.data
read_data       liquid.T1.5.rho${rho}.data
read_data       liquid.T1.5.rho0.64.data
Reading data file ...
  orthogonal box = (0.0000000 0.0000000 0.0000000) to (17.405958 17.405958 17.405958)
  1 by 1 by 1 MPI processor grid
  reading atoms ...
  3375 atoms
  reading velocities ...
  3375 velocities
  read_data CPU = 0.010 seconds

neighbor	0.3 bin
neigh_modify	every 20 delay 0 check no

fix		1 all nve

timestep	0.002

reset_timestep  0

compute		msd all msd
variable        msd_xyz equal c_msd[4]
variable        step0 equal step
variable        step0 equal ${step0}
variable        step0 equal 0
variable        dtime equal (step-${step0})*dt
variable        dtime equal (step-0)*dt
variable        diffus equal v_msd_xyz/(6*(v_dtime+1e-12))
thermo_style	custom step time temp ke pe etotal press c_msd[4]
thermo          50

fix             print_msd all print 50 "${dtime} ${msd_xyz} ${diffus}" file msd.T${temp}.rho${rho}.log screen no
fix             print_msd all print 50 "${dtime} ${msd_xyz} ${diffus}" file msd.T1.5.rho${rho}.log screen no
fix             print_msd all print 50 "${dtime} ${msd_xyz} ${diffus}" file msd.T1.5.rho0.64.log screen no
run		${sim_steps}
run		5000
Neighbor list info ...
  update every 20 steps, delay 0 steps, check no
  max neighbors/atom: 2000, page size: 100000
  master list distance cutoff = 3.3
  ghost atom cutoff = 3.3
  binsize = 1.65, bins = 11 11 11
  1 neighbor lists, perpetual/occasional/extra = 1 0 0
  (1) pair lj/smooth, perpetual
      attributes: half, newton on
      pair build: half/bin/atomonly/newton
      stencil: half/bin/3d
      bin: standard
Per MPI rank memory allocation (min/avg/max) = 3.549 | 3.549 | 3.549 Mbytes
Step Time Temp KinEng PotEng TotEng Press c_msd[4] 
       0            0    1.5069941    2.2598213   -4.0332878   -1.7734665    1.3270929            0 
      50          0.1     1.486966    2.2297881   -4.0035603   -1.7737722     1.430844  0.038700806 
     100          0.2    1.4843599    2.2258802   -3.9990519   -1.7731718    1.4217392   0.11973765 
     150          0.3    1.5050833    2.2569561   -4.0304857   -1.7735296    1.3095386   0.21179509 
     200          0.4    1.5062567    2.2587156   -4.0324645   -1.7737489    1.3394321   0.31193803 
     250          0.5    1.5115675    2.2666795   -4.0401398   -1.7734603    1.3494447   0.41742619 
     300          0.6    1.5012927    2.2512718   -4.0247092   -1.7734374    1.3831072   0.52718219 
     350          0.7    1.5201662    2.2795737   -4.0530975   -1.7735238    1.2835064   0.63888838 
     400          0.8     1.509667    2.2638295   -4.0376807   -1.7738512    1.3281555   0.75476062 
     450          0.9    1.5023054    2.2527903   -4.0262685   -1.7734782    1.3943624   0.87310255 
     500            1    1.5017029    2.2518869   -4.0251054   -1.7732185    1.3788105   0.99517951 
     550          1.1    1.5076776    2.2608463     -4.03432   -1.7734737    1.3083084    1.1130584 
     600          1.2    1.4867119     2.229407   -4.0030488   -1.7736417    1.4129418    1.2308106 
     650          1.3    1.5112514    2.2662055   -4.0402513   -1.7740458    1.3265195    1.3509147 
     700          1.4    1.5002729    2.2497426   -4.0240725   -1.7743299    1.3337348    1.4779206 
     750          1.5    1.5138487    2.2701002   -4.0437045   -1.7736044    1.2874885    1.6068303 
     800          1.6    1.4959351    2.2432378   -4.0163868   -1.7731491    1.3922008    1.7363249 
     850          1.7    1.5080705    2.2614356   -4.0347132   -1.7732776    1.2982582    1.8604763 
     900          1.8    1.4961874    2.2436161   -4.0169088   -1.7732927    1.3591699    1.9836837 
     950          1.9    1.4921171    2.2375124   -4.0109677   -1.7734553    1.3837955    2.1109468 
    1000            2    1.5112863    2.2662578    -4.039681   -1.7734232    1.2747938    2.2425321 
    1050          2.1    1.5090153    2.2628523    -4.036172   -1.7733197    1.2848868    2.3667543 
    1100          2.2    1.4939592    2.2402748   -4.0134126   -1.7731378    1.3825904    2.4918896 
    1150          2.3    1.4800123    2.2193607   -3.9931639   -1.7738032     1.463969    2.6152526 
    1200          2.4    1.5025667    2.2531822   -4.0265552    -1.773373    1.3647508    2.7288589 
    1250          2.5    1.4974374    2.2454905   -4.0187408   -1.7732503    1.4012769    2.8454205 
    1300          2.6    1.5038679    2.2551334   -4.0284111   -1.7732777    1.3637489    2.9638231 
    1350          2.7    1.5223588    2.2828615   -4.0568998   -1.7740383    1.2591626    3.0919957 
    1400          2.8    1.4929867    2.2388165   -4.0125992   -1.7737827    1.3977367    3.2218204 
    1450          2.9    1.4948978    2.2416823    -4.015395   -1.7737127    1.4482324    3.3438648 
    1500            3    1.5006288    2.2502762   -4.0239493   -1.7736731    1.4111055    3.4654195 
    1550          3.1    1.5144672    2.2710277   -4.0446846   -1.7736568    1.3035008    3.5814839 
    1600          3.2    1.4944279    2.2409776   -4.0144683   -1.7734907    1.4010424    3.6921533 
    1650          3.3    1.4975342    2.2456358   -4.0185273   -1.7728915    1.3935795    3.8134793 
    1700          3.4    1.5059759    2.2582945   -4.0314055    -1.773111    1.3492226     3.929276 
    1750          3.5    1.4900776    2.2344541   -4.0080376   -1.7735835    1.3779226     4.042244 
    1800          3.6     1.499253    2.2482132    -4.022155   -1.7739418    1.3087078    4.1552798 
    1850          3.7    1.5063558    2.2588643   -4.0330159   -1.7741516    1.2782491    4.2757178 
    1900          3.8    1.5092845     2.263256   -4.0366007   -1.7733447    1.2762851    4.4099683 
    1950          3.9    1.5043572    2.2558672   -4.0293939   -1.7735267    1.3101135     4.540931 
    2000            4     1.502934     2.253733   -4.0272857   -1.7735527    1.3233198    4.6789987 
    2050          4.1    1.4710492    2.2059199   -3.9793786   -1.7734586    1.4542183    4.8093264 
    2100          4.2    1.5137839    2.2700031   -4.0433998   -1.7733967    1.2194429    4.9269062 
    2150          4.3    1.5123882    2.2679102   -4.0414895   -1.7735793    1.2298856    5.0574541 
    2200          4.4    1.5085218    2.2621123   -4.0356959   -1.7735837    1.2630937    5.1806373 
    2250          4.5    1.5090403    2.2628897   -4.0364975   -1.7736078    1.3288575    5.3007392 
    2300          4.6    1.5022419    2.2526952   -4.0261827   -1.7734875    1.3896358    5.4347141 
    2350          4.7     1.504855    2.2566137   -4.0304846    -1.773871    1.3622463    5.5846055 
    2400          4.8    1.5049281    2.2567232   -4.0306009   -1.7738777    1.3798617    5.7165326 
    2450          4.9    1.5019255    2.2522207   -4.0260915   -1.7738708    1.3967448    5.8517977 
    2500            5     1.486616    2.2292632   -4.0028671   -1.7736038    1.4672008    5.9903035 
    2550          5.1    1.5011181      2.25101   -4.0249862   -1.7739762    1.3866125    6.1112312 
    2600          5.2    1.5069765    2.2597949   -4.0341228   -1.7743278    1.3480699     6.233692 
    2650          5.3    1.4994352    2.2484864   -4.0228125   -1.7743261    1.3452209    6.3403907 
    2700          5.4    1.5093183    2.2633067   -4.0368535   -1.7735469    1.3202994    6.4556399 
    2750          5.5    1.5009762    2.2507972   -4.0244965   -1.7736993    1.3751644      6.58513 
    2800          5.6    1.5065278    2.2591221   -4.0328736   -1.7737515    1.3389586    6.7205198 
    2850          5.7    1.4949731    2.2417953   -4.0148816   -1.7730863    1.3427684    6.8608826 
    2900          5.8     1.516277    2.2737416   -4.0468888   -1.7731472    1.2488593    7.0023603 
    2950          5.9    1.4908267    2.2355774   -4.0089865   -1.7734091    1.4546218    7.1280535 
    3000            6    1.4995434    2.2486486   -4.0222462   -1.7735976    1.4045771    7.2511841 
    3050          6.1    1.4934905     2.239572    -4.013393    -1.773821    1.3982977    7.3840239 
    3100          6.2    1.4820019    2.2223441   -3.9963529   -1.7740088    1.4338985    7.5121084 
    3150          6.3    1.4961679    2.2435869    -4.017246    -1.773659    1.4182322    7.6429985 
    3200          6.4    1.4998764     2.249148   -4.0225968   -1.7734488    1.3771788    7.7788183 
    3250          6.5    1.5018849    2.2521598   -4.0257832   -1.7736234    1.3332283    7.8978936 
    3300          6.6     1.507297    2.2602757   -4.0343002   -1.7740245    1.3182899    8.0073109 
    3350          6.7    1.4989204    2.2477144   -4.0212213   -1.7735069    1.3933223     8.125577 
    3400          6.8    1.5153834    2.2724016   -4.0460875    -1.773686    1.3065792    8.2330084 
    3450          6.9    1.4975978    2.2457312   -4.0198075   -1.7740763    1.3937819    8.3293625 
    3500            7    1.4973553    2.2453674   -4.0189963   -1.7736288    1.4119074    8.4275802 
    3550          7.1    1.5073266      2.26032   -4.0340311   -1.7737111    1.3239417    8.5261405 
    3600          7.2    1.4788496    2.2176171   -3.9915293   -1.7739122    1.4528994    8.6325074 
    3650          7.3    1.5073226     2.260314   -4.0337111   -1.7733971    1.3177557    8.7454084 
    3700          7.4    1.4847485    2.2264629   -4.0004123   -1.7739494    1.4198082    8.8584816 
    3750          7.5    1.5007842    2.2505092   -4.0242574   -1.7737482    1.3393158    8.9732105 
    3800          7.6    1.4947136     2.241406    -4.015018    -1.773612     1.364525    9.1061479 
    3850          7.7    1.5120941    2.2674691   -4.0406802   -1.7732111    1.3017055    9.2478204 
    3900          7.8    1.5023029    2.2527867   -4.0263142   -1.7735275    1.3439305    9.3889051 
    3950          7.9    1.5222288    2.2826667   -4.0556776    -1.773011    1.2687717     9.508819 
    4000            8    1.5019957    2.2523261   -4.0256485   -1.7733224    1.3806796    9.6366617 
    4050          8.1    1.5066178    2.2592571   -4.0328931   -1.7736361    1.3162212    9.7602293 
    4100          8.2    1.5160653    2.2734242    -4.047204   -1.7737798    1.2852218    9.8771005 
    4150          8.3    1.5166699    2.2743308   -4.0481222   -1.7737914    1.2959975    10.008866 
    4200          8.4    1.4937878    2.2400179   -4.0137951   -1.7737772    1.4532812    10.141386 
    4250          8.5    1.5111418    2.2660411   -4.0397568   -1.7737157    1.3773228    10.279782 
    4300          8.6    1.5200061    2.2793336   -4.0532158   -1.7738822    1.3098963    10.429595 
    4350          8.7    1.5021265    2.2525222   -4.0262935   -1.7737713    1.3981056    10.572372 
    4400          8.8    1.4959441    2.2432513   -4.0170393    -1.773788    1.4180154    10.727565 
    4450          8.9    1.5057314    2.2579278   -4.0317368    -1.773809    1.3577789    10.884532 
    4500            9    1.4981946     2.246626   -4.0201765   -1.7735506    1.3759833    11.011418 
    4550          9.1    1.5021861    2.2526115   -4.0260611   -1.7734496    1.3132932     11.14287 
    4600          9.2    1.5141729    2.2705864   -4.0441447   -1.7735582    1.2733342    11.273495 
    4650          9.3    1.4930066    2.2388464   -4.0122573    -1.773411    1.3885711    11.404008 
    4700          9.4    1.5133378    2.2693341   -4.0425615   -1.7732275    1.2982335    11.528884 
    4750          9.5    1.5098897    2.2641635   -4.0371828   -1.7730193     1.294746    11.660767 
    4800          9.6    1.5010988     2.250981   -4.0244001   -1.7734191    1.3119751    11.797408 
    4850          9.7    1.5089352    2.2627321   -4.0361026   -1.7733705    1.2646249    11.933191 
    4900          9.8    1.5045038     2.256087   -4.0292841   -1.7731971    1.3051815    12.076201 
    4950          9.9    1.5057257    2.2579194   -4.0313662   -1.7734469    1.3336872    12.204116 
    5000           10     1.510506    2.2650877   -4.0387494   -1.7736617    1.3295481    12.332202 
Loop time of 17.6759 on 1 procs for 5000 steps with 3375 atoms

Performance: 48880.074 tau/day, 282.871 timesteps/s
99.8% CPU use with 1 MPI tasks x no OpenMP threads

MPI task timing breakdown:
Section |  min time  |  avg time  |  max time  |%varavg| %total
---------------------------------------------------------------
Pair    | 15.696     | 15.696     | 15.696     |   0.0 | 88.80
Neigh   | 1.5294     | 1.5294     | 1.5294     |   0.0 |  8.65
Comm    | 0.21016    | 0.21016    | 0.21016    |   0.0 |  1.19
Output  | 0.0041518  | 0.0041518  | 0.0041518  |   0.0 |  0.02
Modify  | 0.18741    | 0.18741    | 0.18741    |   0.0 |  1.06
Other   |            | 0.04895    |            |       |  0.28

Nlocal:        3375.00 ave        3375 max        3375 min
Histogram: 1 0 0 0 0 0 0 0 0 0
Nghost:        5496.00 ave        5496 max        5496 min
Histogram: 1 0 0 0 0 0 0 0 0 0
Neighs:        161582.0 ave      161582 max      161582 min
Histogram: 1 0 0 0 0 0 0 0 0 0

Total # of neighbors = 161582
Ave neighs/atom = 47.876148
Neighbor list builds = 250
Dangerous builds not checked
print           "Diffusivity estimate (MSD): ${diffus}" append msd.T${temp}.rho${rho}.log
print           "Diffusivity estimate (MSD): ${diffus}" append msd.T1.5.rho${rho}.log
print           "Diffusivity estimate (MSD): ${diffus}" append msd.T1.5.rho0.64.log
Diffusivity estimate (MSD): 0.205536693500431

write_data      liquid.T${temp}.rho${rho}.data
write_data      liquid.T1.5.rho${rho}.data
write_data      liquid.T1.5.rho0.64.data
System init for write_data ...
Total wall time: 0:00:17
