units		lj
atom_style	atomic

pair_style	lj/smooth 2.5 3.0

read_data       liquid.T${temp}.rho${rho}.data
read_data       liquid.T1.4.rho${rho}.data
read_data       liquid.T1.4.rho0.61.data
Reading data file ...
  orthogonal box = (0.0000000 0.0000000 0.0000000) to (17.686748 17.686748 17.686748)
  1 by 1 by 1 MPI processor grid
  reading atoms ...
  3375 atoms
  reading velocities ...
  3375 velocities
  read_data CPU = 0.010 seconds

neighbor	0.3 bin
neigh_modify	every 20 delay 0 check no

fix		1 all nve

timestep	0.002

reset_timestep  0

compute		msd all msd
variable        msd_xyz equal c_msd[4]
variable        step0 equal step
variable        step0 equal ${step0}
variable        step0 equal 0
variable        dtime equal (step-${step0})*dt
variable        dtime equal (step-0)*dt
variable        diffus equal v_msd_xyz/(6*(v_dtime+1e-12))
thermo_style	custom step time temp ke pe etotal press c_msd[4]
thermo          50

fix             print_msd all print 50 "${dtime} ${msd_xyz} ${diffus}" file msd.T${temp}.rho${rho}.log screen no
fix             print_msd all print 50 "${dtime} ${msd_xyz} ${diffus}" file msd.T1.4.rho${rho}.log screen no
fix             print_msd all print 50 "${dtime} ${msd_xyz} ${diffus}" file msd.T1.4.rho0.61.log screen no
run		${sim_steps}
run		5000
Neighbor list info ...
  update every 20 steps, delay 0 steps, check no
  max neighbors/atom: 2000, page size: 100000
  master list distance cutoff = 3.3
  ghost atom cutoff = 3.3
  binsize = 1.65, bins = 11 11 11
  1 neighbor lists, perpetual/occasional/extra = 1 0 0
  (1) pair lj/smooth, perpetual
      attributes: half, newton on
      pair build: half/bin/atomonly/newton
      stencil: half/bin/3d
      bin: standard
Per MPI rank memory allocation (min/avg/max) = 3.543 | 3.543 | 3.543 Mbytes
Step Time Temp KinEng PotEng TotEng Press c_msd[4] 
       0            0    1.3586516    2.0373735   -3.8868132   -1.8494397   0.89412636            0 
      50          0.1    1.3788487    2.0676603   -3.9174943    -1.849834   0.79250164  0.036614346 
     100          0.2    1.3630302    2.0439396   -3.8936681   -1.8497286   0.88566051   0.11739032 
     150          0.3    1.3794207     2.068518   -3.9180553   -1.8495373   0.81665214   0.21216018 
     200          0.4    1.3801802    2.0696569   -3.9191862   -1.8495294   0.79103553   0.31712194 
     250          0.5    1.3789804    2.0678577   -3.9172306    -1.849373   0.83838389   0.42775415 
     300          0.6    1.3729142    2.0587612   -3.9086425   -1.8498813    0.8593057     0.541144 
     350          0.7    1.3799323    2.0692851   -3.9190909   -1.8498058   0.83328618   0.65750987 
     400          0.8    1.3862269    2.0787243   -3.9286798   -1.8499555   0.78689353   0.77096983 
     450          0.9    1.3803815    2.0699587   -3.9196935   -1.8497348   0.83459994   0.88434027 
     500            1    1.3654075    2.0475045   -3.8973003   -1.8497958   0.89604029    1.0023541 
     550          1.1    1.3764506    2.0640642   -3.9141733   -1.8501091   0.83328086    1.1152466 
     600          1.2    1.3761464     2.063608   -3.9134183   -1.8498102   0.84911838    1.2331126 
     650          1.3    1.3654875    2.0476244   -3.8979617   -1.8503373   0.93228873    1.3554276 
     700          1.4    1.3678581    2.0511791    -3.901414   -1.8502348   0.88103312    1.4751669 
     750          1.5    1.3686453    2.0523597   -3.9020507   -1.8496911   0.84803648    1.5904148 
     800          1.6    1.3768836    2.0647134   -3.9144708   -1.8497574   0.82297092    1.7130064 
     850          1.7    1.3889419    2.0827956   -3.9328986   -1.8501031   0.75927747    1.8416129 
     900          1.8    1.3843172    2.0758605   -3.9258574   -1.8499969   0.81699108     1.972105 
     950          1.9    1.3715975    2.0567866   -3.9068086    -1.850022   0.84184779    2.0996695 
    1000            2    1.3656768    2.0479082   -3.8978528   -1.8499446   0.84791385    2.2338565 
    1050          2.1    1.3834028    2.0744893    -3.924244   -1.8497546   0.77110575    2.3710336 
    1100          2.2    1.3578354    2.0361497   -3.8858717   -1.8497221   0.89878604    2.5053009 
    1150          2.3    1.3821291    2.0725794   -3.9221514   -1.8495721   0.81587526    2.6365017 
    1200          2.4    1.3617152    2.0419676    -3.891839   -1.8498714   0.92323122    2.7665811 
    1250          2.5    1.3521099    2.0275639   -3.8771132   -1.8495493    0.9772241    2.8909033 
    1300          2.6    1.3755206    2.0626695    -3.912762   -1.8500925   0.86155863     3.009836 
    1350          2.7    1.3831917    2.0741727   -3.9243809   -1.8502082   0.82911148     3.132068 
    1400          2.8    1.3848991    2.0767332   -3.9265719   -1.8498387   0.80559555    3.2514441 
    1450          2.9     1.358298    2.0368433   -3.8864872   -1.8496439   0.95499657    3.3699121 
    1500            3    1.3909751    2.0858445   -3.9354853   -1.8496408   0.77716847    3.4908575 
    1550          3.1    1.3744308    2.0610354   -3.9111183   -1.8500829   0.84852604    3.6153529 
    1600          3.2    1.3860569    2.0784693   -3.9280775   -1.8496082   0.80859228    3.7506553 
    1650          3.3     1.373827      2.06013   -3.9099456   -1.8498157   0.84384765    3.8829601 
    1700          3.4    1.3821199    2.0725656    -3.922383   -1.8498174   0.78660013    4.0062287 
    1750          3.5    1.3771319    2.0650858   -3.9146909   -1.8496052   0.81236243    4.1370598 
    1800          3.6    1.3734906    2.0596255   -3.9092908   -1.8496652   0.83209662    4.2636016 
    1850          3.7    1.3770989    2.0650364   -3.9151735   -1.8501371   0.81120434    4.3928552 
    1900          3.8     1.367664    2.0508881   -3.9007068   -1.8498187   0.84908973     4.518811 
    1950          3.9     1.387704    2.0809392   -3.9302896   -1.8493503   0.74343781    4.6397786 
    2000            4    1.3835186     2.074663   -3.9239827   -1.8493197   0.76927762    4.7662986 
    2050          4.1    1.3646288    2.0463366   -3.8961708   -1.8498342   0.88282073     4.891916 
    2100          4.2    1.3706375    2.0553471   -3.9050938   -1.8497467   0.83128881    5.0189873 
    2150          4.3    1.3715521    2.0567185   -3.9063446    -1.849626   0.84595644    5.1504717 
    2200          4.4     1.364967    2.0468438   -3.8964904   -1.8496466   0.88579725    5.2857453 
    2250          4.5    1.3749285    2.0617816   -3.9116575   -1.8498758   0.84880277    5.4149511 
    2300          4.6    1.3861422    2.0785972   -3.9285305   -1.8499333   0.75419451    5.5330673 
    2350          4.7     1.378166    2.0666365   -3.9160896   -1.8494531   0.80889709     5.659451 
    2400          4.8    1.3801028    2.0695408   -3.9193057   -1.8497649   0.82752336    5.7885907 
    2450          4.9    1.3755214    2.0626708   -3.9128178    -1.850147   0.87054464     5.917218 
    2500            5     1.374924    2.0617749   -3.9117322   -1.8499573   0.87437509    6.0379352 
    2550          5.1      1.35901    2.0379109   -3.8880507   -1.8501397   0.95199246    6.1465351 
    2600          5.2    1.3644791    2.0461122   -3.8965317   -1.8504195   0.89059781     6.262742 
    2650          5.3     1.361804    2.0421008   -3.8920323   -1.8499315   0.88887785     6.388123 
    2700          5.4    1.3479969    2.0213962   -3.8713615   -1.8499653   0.94207086    6.5131767 
    2750          5.5    1.3845544    2.0762163   -3.9259917   -1.8497754   0.80644994    6.6397578 
    2800          5.6    1.3734145    2.0595114   -3.9096096   -1.8500982   0.89874107    6.7733341 
    2850          5.7    1.3785124    2.0671559   -3.9174936   -1.8503377   0.86141886    6.9035946 
    2900          5.8    1.3656854    2.0479212   -3.8980614   -1.8501402   0.90374065    7.0331974 
    2950          5.9     1.365218    2.0472202   -3.8970036   -1.8497833   0.87729172    7.1601585 
    3000            6    1.3692068    2.0532017    -3.902913   -1.8497113   0.87977528    7.2776291 
    3050          6.1    1.3595201    2.0386759   -3.8883496   -1.8496737    0.9144135    7.3850698 
    3100          6.2    1.3776132    2.0658076    -3.915399   -1.8495914   0.82994594    7.4961259 
    3150          6.3    1.3565913    2.0342841   -3.8838776   -1.8495935   0.95147789    7.6223861 
    3200          6.4     1.380306    2.0698455   -3.9195298   -1.8496843   0.83207864    7.7527636 
    3250          6.5     1.389666    2.0838813   -3.9334215   -1.8495402   0.79693003    7.8841427 
    3300          6.6    1.3854852     2.077612   -3.9271219     -1.84951   0.83122987    8.0149135 
    3350          6.7    1.3837861    2.0750642   -3.9251161   -1.8500519   0.83895051    8.1462535 
    3400          6.8    1.3688416     2.052654   -3.9023831   -1.8497291   0.85450101    8.2804751 
    3450          6.9    1.3699759    2.0543549   -3.9043501   -1.8499952   0.81441608    8.4183848 
    3500            7    1.3791649    2.0681344   -3.9177721   -1.8496377   0.77827904    8.5569256 
    3550          7.1    1.3852984    2.0773318   -3.9269402   -1.8496084   0.80953124    8.6910701 
    3600          7.2    1.3674948    2.0506345   -3.9005498   -1.8499153   0.94675706    8.8185151 
    3650          7.3     1.376516    2.0641623   -3.9142945   -1.8501322   0.90452466    8.9605884 
    3700          7.4    1.3766718    2.0643959   -3.9145176   -1.8501217   0.85306233    9.1049407 
    3750          7.5    1.3757301    2.0629837   -3.9132737     -1.85029   0.84956986    9.2455285 
    3800          7.6    1.3764671    2.0640889   -3.9140803   -1.8499913   0.86462527    9.3955856 
    3850          7.7    1.3745913    2.0612761   -3.9109253   -1.8496493   0.86035834    9.5410362 
    3900          7.8    1.3852998    2.0773339   -3.9270333   -1.8496994    0.8045775    9.6753667 
    3950          7.9    1.3873068    2.0803437    -3.930206   -1.8498623    0.7671208    9.8152462 
    4000            8    1.3689866    2.0528714   -3.9021608   -1.8492894    0.8595024    9.9551902 
    4050          8.1    1.3794412    2.0685487    -3.917835   -1.8492863   0.81659509    10.076289 
    4100          8.2    1.3779928    2.0663768   -3.9159291   -1.8495523   0.81819438    10.211064 
    4150          8.3    1.3802382    2.0697439   -3.9194542   -1.8497103   0.78473465    10.357228 
    4200          8.4    1.3732231    2.0592243   -3.9091298   -1.8499055   0.80213464     10.50625 
    4250          8.5    1.3669903    2.0498779    -3.899464   -1.8495861   0.86565818    10.641908 
    4300          8.6    1.3737062    2.0599487   -3.9098591   -1.8499104   0.85473832    10.766136 
    4350          8.7     1.365197    2.0471887    -3.897592   -1.8504033   0.92774127    10.901236 
    4400          8.8    1.3680672    2.0514928   -3.9016052   -1.8501124    0.9487382    11.039316 
    4450          8.9    1.3759574    2.0633246   -3.9132175   -1.8498929    0.8950144      11.1662 
    4500            9    1.3699923    2.0543795   -3.9044987   -1.8501192   0.91460552    11.284929 
    4550          9.1    1.3707758    2.0555545   -3.9054563   -1.8499018   0.87144224    11.396982 
    4600          9.2    1.3838697    2.0751895   -3.9250408   -1.8498513   0.79930087    11.509313 
    4650          9.3    1.3835249    2.0746725   -3.9247319   -1.8500594   0.76508065    11.648821 
    4700          9.4    1.3546517    2.0313755   -3.8812464   -1.8498709   0.92898086    11.789223 
    4750          9.5    1.3812708    2.0712922   -3.9216744   -1.8503822   0.81538649    11.923527 
    4800          9.6    1.3744503    2.0610646   -3.9112146     -1.85015   0.87513573    12.044646 
    4850          9.7    1.3706217    2.0553234   -3.9056732   -1.8503498   0.87666047    12.160091 
    4900          9.8    1.3887388    2.0824909   -3.9327398   -1.8502489   0.83317451    12.273204 
    4950          9.9      1.36067    2.0404002    -3.890631   -1.8502307   0.94022571    12.382657 
    5000           10    1.3683634    2.0519369   -3.9019986   -1.8500617   0.90131275    12.498752 
Loop time of 16.9167 on 1 procs for 5000 steps with 3375 atoms

Performance: 51073.711 tau/day, 295.565 timesteps/s
99.8% CPU use with 1 MPI tasks x no OpenMP threads

MPI task timing breakdown:
Section |  min time  |  avg time  |  max time  |%varavg| %total
---------------------------------------------------------------
Pair    | 14.969     | 14.969     | 14.969     |   0.0 | 88.49
Neigh   | 1.5006     | 1.5006     | 1.5006     |   0.0 |  8.87
Comm    | 0.20687    | 0.20687    | 0.20687    |   0.0 |  1.22
Output  | 0.0041316  | 0.0041316  | 0.0041316  |   0.0 |  0.02
Modify  | 0.18682    | 0.18682    | 0.18682    |   0.0 |  1.10
Other   |            | 0.04902    |            |       |  0.29

Nlocal:        3375.00 ave        3375 max        3375 min
Histogram: 1 0 0 0 0 0 0 0 0 0
Nghost:        5263.00 ave        5263 max        5263 min
Histogram: 1 0 0 0 0 0 0 0 0 0
Neighs:        153790.0 ave      153790 max      153790 min
Histogram: 1 0 0 0 0 0 0 0 0 0

Total # of neighbors = 153790
Ave neighs/atom = 45.567407
Neighbor list builds = 250
Dangerous builds not checked
print           "Diffusivity estimate (MSD): ${diffus}" append msd.T${temp}.rho${rho}.log
print           "Diffusivity estimate (MSD): ${diffus}" append msd.T1.4.rho${rho}.log
print           "Diffusivity estimate (MSD): ${diffus}" append msd.T1.4.rho0.61.log
Diffusivity estimate (MSD): 0.208312525416196

write_data      liquid.T${temp}.rho${rho}.data
write_data      liquid.T1.4.rho${rho}.data
write_data      liquid.T1.4.rho0.61.data
System init for write_data ...
Total wall time: 0:00:16
