units		lj
atom_style	atomic

timestep	0.002

lattice		sc ${rho} origin 0.5 0.5 0.5
lattice		sc 0.61 origin 0.5 0.5 0.5
Lattice spacing in x,y,z = 1.1791165 1.1791165 1.1791165
region		box block 0 ${nlatt} 0 ${nlatt} 0 ${nlatt}
region		box block 0 15 0 ${nlatt} 0 ${nlatt}
region		box block 0 15 0 15 0 ${nlatt}
region		box block 0 15 0 15 0 15
create_box	1 box
Created orthogonal box = (0.0000000 0.0000000 0.0000000) to (17.686748 17.686748 17.686748)
  1 by 1 by 1 MPI processor grid
create_atoms	1 box
Created 3375 atoms
  using lattice units in orthogonal box = (0.0000000 0.0000000 0.0000000) to (17.686748 17.686748 17.686748)
  create_atoms CPU = 0.001 seconds
mass		1 1.0

velocity	all create ${temp} 87287 mom yes
velocity	all create 1.4 87287 mom yes

pair_style	lj/smooth 2.5 3.0
pair_coeff	1 1 1.0 1.0

neighbor	0.3 bin
neigh_modify	every 20 delay 0 check no

fix		1 all nve

thermo		50
run		1000
Neighbor list info ...
  update every 20 steps, delay 0 steps, check no
  max neighbors/atom: 2000, page size: 100000
  master list distance cutoff = 3.3
  ghost atom cutoff = 3.3
  binsize = 1.65, bins = 11 11 11
  1 neighbor lists, perpetual/occasional/extra = 1 0 0
  (1) pair lj/smooth, perpetual
      attributes: half, newton on
      pair build: half/bin/atomonly/newton
      stencil: half/bin/3d
      bin: standard
Per MPI rank memory allocation (min/avg/max) = 3.194 | 3.194 | 3.194 Mbytes
Step Temp E_pair E_mol TotEng Press 
       0          1.4   -4.4062983            0   -2.3069205   -2.2955215 
      50   0.91062788   -3.6453904            0   -2.2798533   0.47031654 
     100    1.1228861   -3.9475362            0   -2.2637061  0.043371234 
     150    1.1534879   -3.9858024            0   -2.2560832   0.23640491 
     200    1.1603493   -3.9942237            0   -2.2542154   0.34793227 
     250    1.1644883    -3.999946            0    -2.253731   0.38630785 
     300    1.1681494   -4.0053298            0   -2.2536248    0.3761881 
     350    1.1721837   -4.0115036            0    -2.253749   0.34716674 
     400    1.1745093    -4.015316            0   -2.2540741   0.39005215 
     450    1.1566945   -3.9881742            0   -2.2536465   0.50056464 
     500    1.1677156   -4.0047777            0   -2.2537234   0.44100683 
     550     1.173358   -4.0131805            0    -2.253665   0.42215427 
     600    1.1696357   -4.0077477            0   -2.2538141    0.3810753 
     650    1.1715097   -4.0102921            0   -2.2535482   0.35243446 
     700    1.1735964   -4.0135445            0   -2.2536715   0.37496025 
     750    1.1707959   -4.0093265            0    -2.253653   0.36846713 
     800    1.1805892   -4.0245365            0   -2.2541774   0.33761885 
     850    1.1769847   -4.0190884            0   -2.2541345   0.38734881 
     900    1.1713584   -4.0102916            0   -2.2537746   0.46687151 
     950    1.1808718   -4.0244842            0   -2.2537013   0.43559933 
    1000    1.2060915   -4.0629642            0   -2.2543631    0.3312498 
Loop time of 3.33518 on 1 procs for 1000 steps with 3375 atoms

Performance: 51811.345 tau/day, 299.834 timesteps/s
99.8% CPU use with 1 MPI tasks x no OpenMP threads

MPI task timing breakdown:
Section |  min time  |  avg time  |  max time  |%varavg| %total
---------------------------------------------------------------
Pair    | 2.9507     | 2.9507     | 2.9507     |   0.0 | 88.47
Neigh   | 0.29735    | 0.29735    | 0.29735    |   0.0 |  8.92
Comm    | 0.040598   | 0.040598   | 0.040598   |   0.0 |  1.22
Output  | 0.00032833 | 0.00032833 | 0.00032833 |   0.0 |  0.01
Modify  | 0.036285   | 0.036285   | 0.036285   |   0.0 |  1.09
Other   |            | 0.009876   |            |       |  0.30

Nlocal:        3375.00 ave        3375 max        3375 min
Histogram: 1 0 0 0 0 0 0 0 0 0
Nghost:        5322.00 ave        5322 max        5322 min
Histogram: 1 0 0 0 0 0 0 0 0 0
Neighs:        153941.0 ave      153941 max      153941 min
Histogram: 1 0 0 0 0 0 0 0 0 0

Total # of neighbors = 153941
Ave neighs/atom = 45.612148
Neighbor list builds = 50
Dangerous builds not checked

fix		2 all langevin ${temp} ${temp} 0.5 7162534 zero yes
fix		2 all langevin 1.4 ${temp} 0.5 7162534 zero yes
fix		2 all langevin 1.4 1.4 0.5 7162534 zero yes

run		2000
Per MPI rank memory allocation (min/avg/max) = 3.194 | 3.194 | 3.194 Mbytes
Step Temp E_pair E_mol TotEng Press 
    1000    1.2060915   -4.0629642            0   -2.2543631    0.3312498 
    1050     1.239769   -3.9865424            0     -2.12744   0.59562517 
    1100    1.2653301   -3.9753873            0   -2.0779545   0.62675448 
    1150    1.3040345   -3.9648323            0   -2.0093602   0.69622919 
    1200    1.3222168   -3.9461909            0   -1.9634535   0.74400247 
    1250    1.3299072   -3.9103098            0     -1.91604    0.8024278 
    1300    1.3486359   -3.8959402            0   -1.8735857   0.89876277 
    1350    1.3731546   -3.8954823            0   -1.8363608   0.93454781 
    1400    1.3867546   -3.9193498            0   -1.8398342   0.82690209 
    1450    1.3956166    -3.914036            0   -1.8212314   0.84074339 
    1500    1.3638806   -3.8983084            0   -1.8530937   0.86080737 
    1550    1.3875245   -3.9109481            0    -1.830278   0.83335324 
    1600    1.3970162   -3.9148017            0   -1.8198984   0.82628678 
    1650    1.3938376   -3.9137855            0   -1.8236486   0.84112412 
    1700    1.3988896   -3.8916606            0   -1.7939479   0.94341805 
    1750    1.3893024   -3.8876891            0   -1.8043529   0.96330459 
    1800    1.3925889   -3.8867628            0   -1.7984984   0.94486531 
    1850    1.4092142   -3.8931752            0   -1.7799803   0.94790133 
    1900    1.4081634   -3.9129123            0    -1.801293   0.85076279 
    1950    1.3983991   -3.8858526            0   -1.7888754   0.94369608 
    2000    1.4098301   -3.9011093            0   -1.7869908   0.93915267 
    2050    1.3878138   -3.9026905            0   -1.8215867   0.90824277 
    2100    1.4011946   -3.8978687            0   -1.7966995   0.96753401 
    2150    1.3955333   -3.8660272            0   -1.7733475     1.036802 
    2200    1.4188601   -3.9212266            0   -1.7935671   0.83424023 
    2250    1.3989672   -3.8760174            0   -1.7781884   0.92800528 
    2300    1.4095603   -3.8885153            0   -1.7748013   0.90702072 
    2350    1.4188055   -3.9023467            0   -1.7747691   0.87708678 
    2400    1.4169618   -3.8912921            0   -1.7664792   0.90705845 
    2450    1.3970039   -3.9160458            0   -1.8211608   0.81552867 
    2500    1.3885131   -3.8824275            0    -1.800275   0.94899485 
    2550    1.3834712   -3.9299425            0   -1.8553506   0.74193166 
    2600     1.370643   -3.9094447            0   -1.8540895   0.81628656 
    2650    1.3618014   -3.9163723            0   -1.8742755   0.79309159 
    2700    1.3767274    -3.911994            0   -1.8475147   0.83683787 
    2750    1.4144664   -3.9249765            0   -1.8039056   0.81663857 
    2800    1.4170949   -3.8968587            0   -1.7718462   0.92972911 
    2850    1.3914075    -3.906882            0   -1.8203891   0.85974874 
    2900    1.4095281    -3.915102            0   -1.8014364    0.8384249 
    2950    1.3692132    -3.917454            0   -1.8642427    0.8136736 
    3000    1.3586516   -3.8868132            0   -1.8494397   0.89412636 
Loop time of 7.02477 on 1 procs for 2000 steps with 3375 atoms

Performance: 49197.371 tau/day, 284.707 timesteps/s
99.8% CPU use with 1 MPI tasks x no OpenMP threads

MPI task timing breakdown:
Section |  min time  |  avg time  |  max time  |%varavg| %total
---------------------------------------------------------------
Pair    | 5.9491     | 5.9491     | 5.9491     |   0.0 | 84.69
Neigh   | 0.59799    | 0.59799    | 0.59799    |   0.0 |  8.51
Comm    | 0.081299   | 0.081299   | 0.081299   |   0.0 |  1.16
Output  | 0.00069836 | 0.00069836 | 0.00069836 |   0.0 |  0.01
Modify  | 0.37617    | 0.37617    | 0.37617    |   0.0 |  5.35
Other   |            | 0.01952    |            |       |  0.28

Nlocal:        3375.00 ave        3375 max        3375 min
Histogram: 1 0 0 0 0 0 0 0 0 0
Nghost:        5283.00 ave        5283 max        5283 min
Histogram: 1 0 0 0 0 0 0 0 0 0
Neighs:        153819.0 ave      153819 max      153819 min
Histogram: 1 0 0 0 0 0 0 0 0 0

Total # of neighbors = 153819
Ave neighs/atom = 45.576000
Neighbor list builds = 100
Dangerous builds not checked

write_data      liquid.T${temp}.rho${rho}.data
write_data      liquid.T1.4.rho${rho}.data
write_data      liquid.T1.4.rho0.61.data
System init for write_data ...
Total wall time: 0:00:10
