shell           rm log.vacf.T${temp}.rho${rho}.txt
shell           rm log.vacf.T1.5.rho${rho}.txt
shell           rm log.vacf.T1.5.rho0.64.txt
WARNING: Shell command 'rm' failed with error 'No such file or directory' (../input.cpp:1234)
units		lj
atom_style	atomic

variable        loop_counter loop ${loop_iterations}
variable        loop_counter loop 25
variable        diff_accum equal 0

label           loop
clear

pair_style	lj/smooth 2.5 3.0

read_data       liquid.T${temp}.rho${rho}.data
read_data       liquid.T1.5.rho${rho}.data
read_data       liquid.T1.5.rho0.64.data
Reading data file ...
  orthogonal box = (0.0000000 0.0000000 0.0000000) to (17.405958 17.405958 17.405958)
  1 by 1 by 1 MPI processor grid
  reading atoms ...
  3375 atoms
  reading velocities ...
  3375 velocities
  read_data CPU = 0.010 seconds

neighbor	0.3 bin
neigh_modify	every 20 delay 0 check no

fix		1 all nve
timestep        0.002
thermo		50

reset_timestep  0
compute         myVACF all vacf

fix             fixVACF all vector 1 c_myVACF[4]
variable        diff_integ equal dt*trap(f_fixVACF)
variable        curVACF equal c_myVACF[4]

variable        step0 equal step
variable        step0 equal $(v_step0)
variable        step0 equal 0
variable        dtime equal (step-${step0})*dt
variable        dtime equal (step-0)*dt
fix             print_vacf all print 2 "${dtime} ${curVACF} ${diff_integ}" append log.vacf.T${temp}.rho${rho}.txt screen no
fix             print_vacf all print 2 "${dtime} ${curVACF} ${diff_integ}" append log.vacf.T1.5.rho${rho}.txt screen no
fix             print_vacf all print 2 "${dtime} ${curVACF} ${diff_integ}" append log.vacf.T1.5.rho0.64.txt screen no
thermo_style	custom step time temp ke pe etotal press

run             ${loop_length}
run             2500
Neighbor list info ...
  update every 20 steps, delay 0 steps, check no
  max neighbors/atom: 2000, page size: 100000
  master list distance cutoff = 3.3
  ghost atom cutoff = 3.3
  binsize = 1.65, bins = 11 11 11
  1 neighbor lists, perpetual/occasional/extra = 1 0 0
  (1) pair lj/smooth, perpetual
      attributes: half, newton on
      pair build: half/bin/atomonly/newton
      stencil: half/bin/3d
      bin: standard
Per MPI rank memory allocation (min/avg/max) = 3.552 | 3.552 | 3.552 Mbytes
Step Time Temp KinEng PotEng TotEng Press 
       0            0     1.510506    2.2650877   -4.0387494   -1.7736617    1.3295481 
      50          0.1    1.4983085    2.2467968   -4.0206724   -1.7738756    1.3830205 
     100          0.2    1.5030842    2.2539583   -4.0277201   -1.7737618    1.3655223 
     150          0.3    1.4928997    2.2386861   -4.0130242   -1.7743381    1.4398545 
     200          0.4    1.4865342    2.2291407   -4.0029679   -1.7738273    1.4379992 
     250          0.5    1.5029638    2.2537777   -4.0278906    -1.774113    1.3980637 
     300          0.6    1.5173557    2.2753591   -4.0491371    -1.773778    1.3377616 
     350          0.7    1.4780254    2.2163813   -3.9904389   -1.7740576    1.5153617 
     400          0.8    1.5075856    2.2607084   -4.0346472   -1.7739389     1.351364 
     450          0.9    1.4935695    2.2396905   -4.0136218   -1.7739313    1.4068782 
     500            1    1.4875488     2.230662   -4.0041122   -1.7734501    1.4332821 
     550          1.1    1.5000551     2.249416   -4.0230911   -1.7736752    1.3913168 
     600          1.2    1.5024088    2.2529454    -4.026624   -1.7736786    1.3811813 
     650          1.3    1.4894922    2.2335763   -4.0072317   -1.7736553    1.4065003 
     700          1.4    1.5086833    2.2623544   -4.0360183   -1.7736638    1.3468022 
     750          1.5    1.4839033    2.2251955   -3.9990122   -1.7738167    1.4337075 
     800          1.6    1.5030189    2.2538604    -4.028116   -1.7742557    1.3227663 
     850          1.7    1.4987585    2.2474717   -4.0211223   -1.7736506    1.3296763 
     900          1.8    1.4870283    2.2298816   -4.0033335    -1.773452    1.3606201 
     950          1.9    1.5033828     2.254406   -4.0280505   -1.7736445    1.2600671 
    1000            2    1.5063748    2.2588927   -4.0325305   -1.7736377    1.2814603 
    1050          2.1    1.5042626    2.2557254   -4.0297239   -1.7739985    1.3263509 
    1100          2.2    1.5061123    2.2584991   -4.0329769   -1.7744778    1.3514515 
    1150          2.3    1.5015477    2.2516542   -4.0257079   -1.7740538    1.3581675 
    1200          2.4    1.4813443    2.2213581   -3.9952108   -1.7738527    1.4667115 
    1250          2.5    1.5302695    2.2947241   -4.0684982    -1.773774    1.2466088 
    1300          2.6    1.4808056    2.2205503   -3.9944092    -1.773859    1.4774499 
    1350          2.7    1.5097996    2.2640283   -4.0379147   -1.7738864    1.3435992 
    1400          2.8     1.497836    2.2460883   -4.0198915   -1.7738031    1.3993358 
    1450          2.9    1.4989949    2.2478262   -4.0216854   -1.7738593    1.3831389 
    1500            3      1.51091    2.2656934   -4.0394768   -1.7737834    1.2921971 
    1550          3.1    1.4996116     2.248751    -4.023027   -1.7742761    1.3745779 
    1600          3.2    1.4983582    2.2468714   -4.0208417   -1.7739703    1.3814731 
    1650          3.3    1.5152409    2.2721879   -4.0456268   -1.7734389    1.2965677 
    1700          3.4    1.5048761    2.2566454     -4.03015   -1.7735047    1.3511833 
    1750          3.5    1.5025028    2.2530864   -4.0267472   -1.7736608    1.3253259 
    1800          3.6    1.5036129     2.254751    -4.027882    -1.773131    1.2974744 
    1850          3.7     1.508111    2.2614962   -4.0350665   -1.7735703    1.2650477 
    1900          3.8    1.5056575    2.2578171   -4.0315585   -1.7737414    1.2861213 
    1950          3.9    1.5091849    2.2631067   -4.0367283   -1.7736216    1.2598773 
    2000            4     1.506023    2.2583652   -4.0319927   -1.7736276    1.3278791 
    2050          4.1    1.5041717    2.2555891   -4.0292951    -1.773706    1.3420014 
    2100          4.2    1.5051796    2.2571005   -4.0307102   -1.7736097    1.3584012 
    2150          4.3    1.4976818     2.245857   -4.0194858   -1.7736288    1.3783524 
    2200          4.4      1.50806    2.2614197   -4.0354329   -1.7740132    1.3659768 
    2250          4.5    1.5280387    2.2913789   -4.0654773   -1.7740984    1.2436512 
    2300          4.6    1.4962112    2.2436518   -4.0177106   -1.7740588    1.3563308 
    2350          4.7     1.491925    2.2372244   -4.0109419   -1.7737175    1.3922359 
    2400          4.8    1.5083386    2.2618376   -4.0357462   -1.7739087    1.3137954 
    2450          4.9    1.5224507    2.2829994   -4.0569766   -1.7739772    1.2219026 
    2500            5    1.5108231    2.2655631   -4.0395622   -1.7739991    1.2804965 
Loop time of 8.89567 on 1 procs for 2500 steps with 3375 atoms

Performance: 48562.926 tau/day, 281.035 timesteps/s
99.7% CPU use with 1 MPI tasks x no OpenMP threads

MPI task timing breakdown:
Section |  min time  |  avg time  |  max time  |%varavg| %total
---------------------------------------------------------------
Pair    | 7.8355     | 7.8355     | 7.8355     |   0.0 | 88.08
Neigh   | 0.76304    | 0.76304    | 0.76304    |   0.0 |  8.58
Comm    | 0.10381    | 0.10381    | 0.10381    |   0.0 |  1.17
Output  | 0.00083437 | 0.00083437 | 0.00083437 |   0.0 |  0.01
Modify  | 0.16731    | 0.16731    | 0.16731    |   0.0 |  1.88
Other   |            | 0.02523    |            |       |  0.28

Nlocal:        3375.00 ave        3375 max        3375 min
Histogram: 1 0 0 0 0 0 0 0 0 0
Nghost:        5572.00 ave        5572 max        5572 min
Histogram: 1 0 0 0 0 0 0 0 0 0
Neighs:        161277.0 ave      161277 max      161277 min
Histogram: 1 0 0 0 0 0 0 0 0 0

Total # of neighbors = 161277
Ave neighs/atom = 47.785778
Neighbor list builds = 125
Dangerous builds not checked
variable        diff_accum equal ${diff_accum}+${diff_integ}/(3*${loop_iterations})
variable        diff_accum equal 0+${diff_integ}/(3*${loop_iterations})
variable        diff_accum equal 0+0.594421665709698/(3*${loop_iterations})
variable        diff_accum equal 0+0.594421665709698/(3*25)
unfix           fixVACF
write_data      liquid.T${temp}.rho${rho}.data
write_data      liquid.T1.5.rho${rho}.data
write_data      liquid.T1.5.rho0.64.data
System init for write_data ...
print           "" append log.vacf.T${temp}.rho${rho}.txt screen no
print           "" append log.vacf.T1.5.rho${rho}.txt screen no
print           "" append log.vacf.T1.5.rho0.64.txt screen no

next            loop_counter
jump            SELF loop
clear

pair_style	lj/smooth 2.5 3.0

read_data       liquid.T${temp}.rho${rho}.data
read_data       liquid.T1.5.rho${rho}.data
read_data       liquid.T1.5.rho0.64.data
Reading data file ...
  orthogonal box = (0.0000000 0.0000000 0.0000000) to (17.405958 17.405958 17.405958)
  1 by 1 by 1 MPI processor grid
  reading atoms ...
  3375 atoms
  reading velocities ...
  3375 velocities
  read_data CPU = 0.009 seconds

neighbor	0.3 bin
neigh_modify	every 20 delay 0 check no

fix		1 all nve
timestep        0.002
thermo		50

reset_timestep  0
compute         myVACF all vacf

fix             fixVACF all vector 1 c_myVACF[4]
variable        diff_integ equal dt*trap(f_fixVACF)
variable        curVACF equal c_myVACF[4]

variable        step0 equal step
variable        step0 equal $(v_step0)
variable        step0 equal 0
variable        dtime equal (step-${step0})*dt
variable        dtime equal (step-0)*dt
fix             print_vacf all print 2 "${dtime} ${curVACF} ${diff_integ}" append log.vacf.T${temp}.rho${rho}.txt screen no
fix             print_vacf all print 2 "${dtime} ${curVACF} ${diff_integ}" append log.vacf.T1.5.rho${rho}.txt screen no
fix             print_vacf all print 2 "${dtime} ${curVACF} ${diff_integ}" append log.vacf.T1.5.rho0.64.txt screen no
thermo_style	custom step time temp ke pe etotal press

run             ${loop_length}
run             2500
Neighbor list info ...
  update every 20 steps, delay 0 steps, check no
  max neighbors/atom: 2000, page size: 100000
  master list distance cutoff = 3.3
  ghost atom cutoff = 3.3
  binsize = 1.65, bins = 11 11 11
  1 neighbor lists, perpetual/occasional/extra = 1 0 0
  (1) pair lj/smooth, perpetual
      attributes: half, newton on
      pair build: half/bin/atomonly/newton
      stencil: half/bin/3d
      bin: standard
Per MPI rank memory allocation (min/avg/max) = 3.555 | 3.555 | 3.555 Mbytes
Step Time Temp KinEng PotEng TotEng Press 
       0            0    1.5108231    2.2655631   -4.0395622   -1.7739991    1.2804965 
      50          0.1    1.5132962    2.2692717   -4.0433176   -1.7740459    1.3264914 
     100          0.2    1.5105353    2.2651315   -4.0390217   -1.7738902    1.3316958 
     150          0.3    1.5147391    2.2714355    -4.045425   -1.7739895    1.2643775 
     200          0.4    1.5151435    2.2720418   -4.0456641   -1.7736223    1.2673647 
     250          0.5    1.5081754    2.2615928   -4.0353915   -1.7737987    1.3239122 
     300          0.6    1.4764463    2.2140133   -3.9876913    -1.773678    1.5112618 
     350          0.7    1.5117623    2.2669716     -4.04034   -1.7733684    1.3473042 
     400          0.8    1.5021854    2.2526105   -4.0260031   -1.7733926    1.3845935 
     450          0.9    1.5002549    2.2497156   -4.0233728   -1.7736573    1.3829397 
     500            1    1.5082974    2.2617758   -4.0356362   -1.7738604     1.349929 
     550          1.1    1.5255518    2.2876497   -4.0614389   -1.7737892    1.2460462 
     600          1.2     1.497036    2.2448887   -4.0185088   -1.7736201    1.3641044 
     650          1.3    1.5103367    2.2648339   -4.0384072   -1.7735733    1.2519956 
     700          1.4    1.4915304    2.2366327   -4.0102368   -1.7736041    1.3800077 
     750          1.5    1.5056341    2.2577821   -4.0316318   -1.7738497    1.3353866 
     800          1.6    1.4944663    2.2410353   -4.0146015   -1.7735662    1.3749955 
     850          1.7    1.5178005    2.2760262   -4.0496607   -1.7736345    1.3006245 
     900          1.8    1.5043453    2.2558494   -4.0298355   -1.7739861    1.3525385 
     950          1.9    1.5209977    2.2808205   -4.0548048   -1.7739843    1.2798727 
    1000            2    1.4874002    2.2304393   -4.0042356   -1.7737964    1.4719393 
    1050          2.1    1.5146855     2.271355    -4.045239   -1.7738839    1.3425816 
    1100          2.2    1.5145942    2.2712181   -4.0452716   -1.7740535    1.3478586 
    1150          2.3    1.5205357    2.2801277   -4.0542746   -1.7741469    1.3553341 
    1200          2.4     1.499103    2.2479883   -4.0218916   -1.7739033    1.4468838 
    1250          2.5    1.5119363    2.2672325   -4.0411586   -1.7739261    1.3427421 
    1300          2.6    1.4977086    2.2458973   -4.0199901   -1.7740928    1.3922834 
    1350          2.7    1.5121743    2.2675894    -4.041898   -1.7743086    1.3135037 
    1400          2.8    1.4972452    2.2452024   -4.0195689   -1.7743666    1.4073865 
    1450          2.9    1.5005061    2.2500923   -4.0242273   -1.7741349    1.4292775 
    1500            3    1.5015225    2.2516165   -4.0257456   -1.7741291    1.3646745 
    1550          3.1    1.5002404    2.2496938   -4.0237465   -1.7740526    1.3745785 
    1600          3.2    1.5049654    2.2567793   -4.0306259   -1.7738466    1.3539378 
    1650          3.3    1.4968393    2.2445937   -4.0184745   -1.7738808    1.4105149 
    1700          3.4    1.5211298    2.2810186   -4.0546601   -1.7736416    1.2839461 
    1750          3.5    1.4951163    2.2420099   -4.0158288   -1.7738189    1.3838127 
    1800          3.6    1.4974351    2.2454871   -4.0190891    -1.773602    1.3552733 
    1850          3.7    1.4953922    2.2424237   -4.0158288   -1.7734051    1.3686076 
    1900          3.8    1.4949718    2.2417932    -4.015443   -1.7736498    1.4221789 
    1950          3.9    1.5190314    2.2778719   -4.0514885   -1.7736165    1.3103104 
    2000            4     1.519157    2.2780603   -4.0513558   -1.7732955    1.2877965 
    2050          4.1    1.5058003    2.2580313   -4.0317127   -1.7736815    1.3096009 
    2100          4.2     1.493363    2.2393808   -4.0130339   -1.7736531     1.350844 
    2150          4.3    1.5084434    2.2619947    -4.035624   -1.7736293    1.2860564 
    2200          4.4    1.5058278    2.2580725   -4.0316164   -1.7735439    1.2977669 
    2250          4.5    1.5095341    2.2636303   -4.0365534   -1.7729231    1.2642524 
    2300          4.6    1.4891067    2.2329982   -4.0069452    -1.773947    1.3915062 
    2350          4.7    1.4973236    2.2453199   -4.0190619    -1.773742    1.3648596 
    2400          4.8    1.5120194    2.2673571   -4.0411844   -1.7738273    1.2880861 
    2450          4.9    1.4981182    2.2465115   -4.0202108   -1.7736993     1.385107 
    2500            5    1.5091731    2.2630889   -4.0372424   -1.7741535    1.3439875 
Loop time of 9.12322 on 1 procs for 2500 steps with 3375 atoms

Performance: 47351.714 tau/day, 274.026 timesteps/s
99.8% CPU use with 1 MPI tasks x no OpenMP threads

MPI task timing breakdown:
Section |  min time  |  avg time  |  max time  |%varavg| %total
---------------------------------------------------------------
Pair    | 8.0607     | 8.0607     | 8.0607     |   0.0 | 88.35
Neigh   | 0.76456    | 0.76456    | 0.76456    |   0.0 |  8.38
Comm    | 0.10444    | 0.10444    | 0.10444    |   0.0 |  1.14
Output  | 0.00081101 | 0.00081101 | 0.00081101 |   0.0 |  0.01
Modify  | 0.16748    | 0.16748    | 0.16748    |   0.0 |  1.84
Other   |            | 0.02525    |            |       |  0.28

Nlocal:        3375.00 ave        3375 max        3375 min
Histogram: 1 0 0 0 0 0 0 0 0 0
Nghost:        5512.00 ave        5512 max        5512 min
Histogram: 1 0 0 0 0 0 0 0 0 0
Neighs:        161447.0 ave      161447 max      161447 min
Histogram: 1 0 0 0 0 0 0 0 0 0

Total # of neighbors = 161447
Ave neighs/atom = 47.836148
Neighbor list builds = 125
Dangerous builds not checked
variable        diff_accum equal ${diff_accum}+${diff_integ}/(3*${loop_iterations})
variable        diff_accum equal 0.00792562220946264+${diff_integ}/(3*${loop_iterations})
variable        diff_accum equal 0.00792562220946264+0.659394548830693/(3*${loop_iterations})
variable        diff_accum equal 0.00792562220946264+0.659394548830693/(3*25)
unfix           fixVACF
write_data      liquid.T${temp}.rho${rho}.data
write_data      liquid.T1.5.rho${rho}.data
write_data      liquid.T1.5.rho0.64.data
System init for write_data ...
print           "" append log.vacf.T${temp}.rho${rho}.txt screen no
print           "" append log.vacf.T1.5.rho${rho}.txt screen no
print           "" append log.vacf.T1.5.rho0.64.txt screen no

next            loop_counter
jump            SELF loop
clear

pair_style	lj/smooth 2.5 3.0

read_data       liquid.T${temp}.rho${rho}.data
read_data       liquid.T1.5.rho${rho}.data
read_data       liquid.T1.5.rho0.64.data
Reading data file ...
  orthogonal box = (0.0000000 0.0000000 0.0000000) to (17.405958 17.405958 17.405958)
  1 by 1 by 1 MPI processor grid
  reading atoms ...
  3375 atoms
  reading velocities ...
  3375 velocities
  read_data CPU = 0.009 seconds

neighbor	0.3 bin
neigh_modify	every 20 delay 0 check no

fix		1 all nve
timestep        0.002
thermo		50

reset_timestep  0
compute         myVACF all vacf

fix             fixVACF all vector 1 c_myVACF[4]
variable        diff_integ equal dt*trap(f_fixVACF)
variable        curVACF equal c_myVACF[4]

variable        step0 equal step
variable        step0 equal $(v_step0)
variable        step0 equal 0
variable        dtime equal (step-${step0})*dt
variable        dtime equal (step-0)*dt
fix             print_vacf all print 2 "${dtime} ${curVACF} ${diff_integ}" append log.vacf.T${temp}.rho${rho}.txt screen no
fix             print_vacf all print 2 "${dtime} ${curVACF} ${diff_integ}" append log.vacf.T1.5.rho${rho}.txt screen no
fix             print_vacf all print 2 "${dtime} ${curVACF} ${diff_integ}" append log.vacf.T1.5.rho0.64.txt screen no
thermo_style	custom step time temp ke pe etotal press

run             ${loop_length}
run             2500
Neighbor list info ...
  update every 20 steps, delay 0 steps, check no
  max neighbors/atom: 2000, page size: 100000
  master list distance cutoff = 3.3
  ghost atom cutoff = 3.3
  binsize = 1.65, bins = 11 11 11
  1 neighbor lists, perpetual/occasional/extra = 1 0 0
  (1) pair lj/smooth, perpetual
      attributes: half, newton on
      pair build: half/bin/atomonly/newton
      stencil: half/bin/3d
      bin: standard
Per MPI rank memory allocation (min/avg/max) = 3.553 | 3.553 | 3.553 Mbytes
Step Time Temp KinEng PotEng TotEng Press 
       0            0    1.5091731    2.2630889   -4.0372424   -1.7741535    1.3439875 
      50          0.1    1.4967097    2.2443993   -4.0183709   -1.7739717    1.3946865 
     100          0.2    1.5013377    2.2513393   -4.0246978   -1.7733586    1.3476004 
     150          0.3    1.5096298    2.2637738   -4.0380806   -1.7743068    1.2944841 
     200          0.4    1.4980267    2.2463742    -4.020159   -1.7737848    1.3888298 
     250          0.5    1.5035267    2.2546218   -4.0279284   -1.7733066    1.4045988 
     300          0.6    1.5265137    2.2890921    -4.062339   -1.7732469    1.2816652 
     350          0.7    1.5080377    2.2613864   -4.0345749   -1.7731885    1.3509822 
     400          0.8    1.5074341    2.2604812   -4.0339547   -1.7734735     1.310031 
     450          0.9    1.5087526    2.2624584    -4.035839   -1.7733807    1.2750285 
     500            1    1.5177821    2.2759986   -4.0498431   -1.7738445    1.2304181 
     550          1.1     1.507822    2.2610629   -4.0346004   -1.7735375    1.2859229 
     600          1.2    1.5034941     2.254573   -4.0281052   -1.7735322    1.3372575 
     650          1.3    1.5003806    2.2499041   -4.0235563   -1.7736522    1.3696341 
     700          1.4    1.4983849    2.2469114   -4.0202449   -1.7733335    1.3783401 
     750          1.5    1.5152866    2.2722564   -4.0462253   -1.7739689    1.3009654 
     800          1.6    1.4974947    2.2455764   -4.0195274    -1.773951     1.406404 
     850          1.7    1.4906934    2.2353776   -4.0095454   -1.7741678    1.4205691 
     900          1.8    1.4825886     2.223224   -3.9965126   -1.7732886    1.4782631 
     950          1.9    1.5089457    2.2627479   -4.0364613   -1.7737134    1.3257777 
    1000            2    1.5030175    2.2538582   -4.0271442    -1.773286    1.3267127 
    1050          2.1    1.4952191    2.2421642   -4.0156946   -1.7735305    1.3754646 
    1100          2.2    1.5054566    2.2575157   -4.0313587   -1.7738429    1.3126709 
    1150          2.3    1.4994781    2.2485507   -4.0226285   -1.7740779    1.3780704 
    1200          2.4    1.5008336    2.2505834   -4.0250514    -1.774468    1.3790253 
    1250          2.5    1.4990734    2.2479438   -4.0222603   -1.7743164    1.3849716 
    1300          2.6    1.4812035     2.221147   -3.9957715   -1.7746245    1.4971256 
    1350          2.7    1.5165511    2.2741526   -4.0482121   -1.7740595     1.315243 
    1400          2.8    1.4856093    2.2277537   -4.0016391   -1.7738854    1.4403612 
    1450          2.9    1.5247384    2.2864299   -4.0604765   -1.7740466    1.2410656 
    1500            3    1.5141943    2.2706185   -4.0444893   -1.7738708    1.2756523 
    1550          3.1    1.4989354    2.2477369   -4.0214235   -1.7736865    1.3601402 
    1600          3.2    1.4972005    2.2451354    -4.018934   -1.7737986    1.3715566 
    1650          3.3    1.4953857    2.2424139   -4.0155769    -1.773163    1.3383451 
    1700          3.4    1.5166816    2.2743483   -4.0473334   -1.7729851    1.2187657 
    1750          3.5    1.5082231    2.2616643   -4.0353339   -1.7736696    1.2673309 
    1800          3.6    1.4921899    2.2376216   -4.0113111   -1.7736895    1.3461237 
    1850          3.7    1.4958875    2.2431665   -4.0163291   -1.7731626    1.2955286 
    1900          3.8    1.5172643    2.2752221   -4.0484025   -1.7731804    1.1792882 
    1950          3.9    1.5143476    2.2708484   -4.0439245   -1.7730761    1.2289319 
    2000            4    1.5220081    2.2823357   -4.0559441   -1.7736083    1.2417166 
    2050          4.1    1.5045206    2.2561123   -4.0293984   -1.7732861    1.3559806 
    2100          4.2    1.5044697    2.2560359   -4.0294018   -1.7733659    1.3791596 
    2150          4.3    1.5260229    2.2883562   -4.0618704   -1.7735143    1.2908072 
    2200          4.4     1.492046    2.2374058    -4.011037   -1.7736312    1.4512053 
    2250          4.5    1.5159887    2.2733093    -4.047335   -1.7740257     1.289708 
    2300          4.6    1.5189175    2.2777012   -4.0511668   -1.7734656    1.2639612 
    2350          4.7    1.5202349    2.2796767   -4.0528801   -1.7732034    1.2863887 
    2400          4.8    1.4983874    2.2469152   -4.0202375   -1.7733223    1.3995771 
    2450          4.9    1.4959026     2.243189   -4.0169314   -1.7737424    1.3623222 
    2500            5    1.5025982    2.2532295    -4.026721   -1.7734916    1.3197911 
Loop time of 8.8969 on 1 procs for 2500 steps with 3375 atoms

Performance: 48556.252 tau/day, 280.997 timesteps/s
99.7% CPU use with 1 MPI tasks x no OpenMP threads

MPI task timing breakdown:
Section |  min time  |  avg time  |  max time  |%varavg| %total
---------------------------------------------------------------
Pair    | 7.8412     | 7.8412     | 7.8412     |   0.0 | 88.13
Neigh   | 0.75846    | 0.75846    | 0.75846    |   0.0 |  8.52
Comm    | 0.10325    | 0.10325    | 0.10325    |   0.0 |  1.16
Output  | 0.00080418 | 0.00080418 | 0.00080418 |   0.0 |  0.01
Modify  | 0.16776    | 0.16776    | 0.16776    |   0.0 |  1.89
Other   |            | 0.02545    |            |       |  0.29

Nlocal:        3375.00 ave        3375 max        3375 min
Histogram: 1 0 0 0 0 0 0 0 0 0
Nghost:        5431.00 ave        5431 max        5431 min
Histogram: 1 0 0 0 0 0 0 0 0 0
Neighs:        161335.0 ave      161335 max      161335 min
Histogram: 1 0 0 0 0 0 0 0 0 0

Total # of neighbors = 161335
Ave neighs/atom = 47.802963
Neighbor list builds = 125
Dangerous builds not checked
variable        diff_accum equal ${diff_accum}+${diff_integ}/(3*${loop_iterations})
variable        diff_accum equal 0.0167175495272052+${diff_integ}/(3*${loop_iterations})
variable        diff_accum equal 0.0167175495272052+0.689574392315491/(3*${loop_iterations})
variable        diff_accum equal 0.0167175495272052+0.689574392315491/(3*25)
unfix           fixVACF
write_data      liquid.T${temp}.rho${rho}.data
write_data      liquid.T1.5.rho${rho}.data
write_data      liquid.T1.5.rho0.64.data
System init for write_data ...
print           "" append log.vacf.T${temp}.rho${rho}.txt screen no
print           "" append log.vacf.T1.5.rho${rho}.txt screen no
print           "" append log.vacf.T1.5.rho0.64.txt screen no

next            loop_counter
jump            SELF loop
clear

pair_style	lj/smooth 2.5 3.0

read_data       liquid.T${temp}.rho${rho}.data
read_data       liquid.T1.5.rho${rho}.data
read_data       liquid.T1.5.rho0.64.data
Reading data file ...
  orthogonal box = (0.0000000 0.0000000 0.0000000) to (17.405958 17.405958 17.405958)
  1 by 1 by 1 MPI processor grid
  reading atoms ...
  3375 atoms
  reading velocities ...
  3375 velocities
  read_data CPU = 0.009 seconds

neighbor	0.3 bin
neigh_modify	every 20 delay 0 check no

fix		1 all nve
timestep        0.002
thermo		50

reset_timestep  0
compute         myVACF all vacf

fix             fixVACF all vector 1 c_myVACF[4]
variable        diff_integ equal dt*trap(f_fixVACF)
variable        curVACF equal c_myVACF[4]

variable        step0 equal step
variable        step0 equal $(v_step0)
variable        step0 equal 0
variable        dtime equal (step-${step0})*dt
variable        dtime equal (step-0)*dt
fix             print_vacf all print 2 "${dtime} ${curVACF} ${diff_integ}" append log.vacf.T${temp}.rho${rho}.txt screen no
fix             print_vacf all print 2 "${dtime} ${curVACF} ${diff_integ}" append log.vacf.T1.5.rho${rho}.txt screen no
fix             print_vacf all print 2 "${dtime} ${curVACF} ${diff_integ}" append log.vacf.T1.5.rho0.64.txt screen no
thermo_style	custom step time temp ke pe etotal press

run             ${loop_length}
run             2500
Neighbor list info ...
  update every 20 steps, delay 0 steps, check no
  max neighbors/atom: 2000, page size: 100000
  master list distance cutoff = 3.3
  ghost atom cutoff = 3.3
  binsize = 1.65, bins = 11 11 11
  1 neighbor lists, perpetual/occasional/extra = 1 0 0
  (1) pair lj/smooth, perpetual
      attributes: half, newton on
      pair build: half/bin/atomonly/newton
      stencil: half/bin/3d
      bin: standard
Per MPI rank memory allocation (min/avg/max) = 3.550 | 3.550 | 3.550 Mbytes
Step Time Temp KinEng PotEng TotEng Press 
       0            0    1.5025982    2.2532295    -4.026721   -1.7734916    1.3197911 
      50          0.1    1.5100032    2.2643337   -4.0375827    -1.773249     1.255574 
     100          0.2    1.5097816    2.2640014   -4.0374832   -1.7734818    1.2834684 
     150          0.3    1.5297883    2.2940026   -4.0673847   -1.7733821    1.2133931 
     200          0.4    1.4979461    2.2462534   -4.0196044   -1.7733509    1.3967131 
     250          0.5    1.5043961    2.2559255   -4.0292819   -1.7733564    1.3282902 
     300          0.6    1.5148025    2.2715305   -4.0450066   -1.7734761    1.2357171 
     350          0.7    1.5196173    2.2787505   -4.0524857   -1.7737352    1.2667884 
     400          0.8    1.4936409    2.2397976   -4.0137204   -1.7739228    1.4345182 
     450          0.9    1.5171529    2.2750551   -4.0491093   -1.7740542    1.3481936 
     500            1     1.496023    2.2433697     -4.01677   -1.7734004    1.4405218 
     550          1.1     1.508656    2.2623136    -4.036171   -1.7738575    1.3717925 
     600          1.2    1.5030079    2.2538439   -4.0273989    -1.773555    1.3863973 
     650          1.3    1.5078869    2.2611602   -4.0349249   -1.7737647    1.3656939 
     700          1.4    1.4997528    2.2489627   -4.0227417   -1.7737791     1.402442 
     750          1.5    1.5140397    2.2703866   -4.0444408   -1.7740542    1.3418611 
     800          1.6    1.5060754    2.2584437    -4.032416   -1.7739723    1.3622088 
     850          1.7    1.5060285    2.2583733   -4.0321946   -1.7738213     1.371607 
     900          1.8     1.505014    2.2568522   -4.0309843   -1.7741321    1.3834172 
     950          1.9    1.4953434    2.2423504   -4.0161902   -1.7738398    1.3965074 
    1000            2    1.5210797    2.2809435   -4.0546075    -1.773664    1.2390432 
    1050          2.1    1.4946999    2.2413855   -4.0149429   -1.7735573    1.3937004 
    1100          2.2    1.5289906    2.2928064   -4.0666354    -1.773829    1.2116988 
    1150          2.3    1.5144793    2.2710459   -4.0447422   -1.7736964    1.2896331 
    1200          2.4    1.4974224     2.245468   -4.0195025   -1.7740344    1.3813032 
    1250          2.5    1.5091991     2.263128   -4.0370709    -1.773943    1.3229689 
    1300          2.6    1.5135008    2.2695786   -4.0437056    -1.774127    1.3003257 
    1350          2.7    1.4967169    2.2444101   -4.0181978   -1.7737877    1.3735258 
    1400          2.8    1.5093419    2.2633421   -4.0371526   -1.7738105    1.3103872 
    1450          2.9    1.5222608    2.2827146   -4.0569753   -1.7742607    1.2540418 
    1500            3    1.5157404     2.272937   -4.0466194   -1.7736824     1.256757 
    1550          3.1    1.5052092    2.2571448   -4.0308595   -1.7737148    1.3264524 
    1600          3.2    1.5099905    2.2643147   -4.0379776   -1.7736629     1.351236 
    1650          3.3    1.5001214    2.2495154   -4.0227265   -1.7732111     1.405791 
    1700          3.4    1.5050823    2.2569546   -4.0309147   -1.7739601    1.3382165 
    1750          3.5    1.5184482    2.2769974   -4.0508021   -1.7738047    1.3058601 
    1800          3.6    1.5117961    2.2670222   -4.0410634   -1.7740412    1.3446461 
    1850          3.7    1.5262025    2.2886254   -4.0625291   -1.7739037    1.2329294 
    1900          3.8    1.5082434    2.2616947   -4.0357986   -1.7741039    1.3307026 
    1950          3.9    1.5087049    2.2623868    -4.036787   -1.7744002    1.3739235 
    2000            4    1.5110837     2.265954   -4.0405289    -1.774575    1.3942521 
    2050          4.1    1.4987271    2.2474245   -4.0221409   -1.7747164    1.4743276 
    2100          4.2    1.4995317    2.2486311   -4.0228716   -1.7742405    1.4288938 
    2150          4.3    1.4921329    2.2375361   -4.0114187   -1.7738826    1.4322191 
    2200          4.4    1.5012188     2.251161   -4.0247565   -1.7735954    1.3964283 
    2250          4.5    1.5216604    2.2818142   -4.0555476   -1.7737334    1.2569983 
    2300          4.6    1.5168539    2.2746067   -4.0486463   -1.7740396    1.2737323 
    2350          4.7    1.4950382    2.2418928   -4.0159786   -1.7740859     1.430114 
    2400          4.8    1.4967572    2.2444706    -4.018177   -1.7737064    1.3970061 
    2450          4.9     1.497747    2.2459548   -4.0201271   -1.7741723    1.3879691 
    2500            5    1.4909977    2.2358338   -4.0099654   -1.7741315    1.4224732 
Loop time of 8.86823 on 1 procs for 2500 steps with 3375 atoms

Performance: 48713.225 tau/day, 281.905 timesteps/s
99.7% CPU use with 1 MPI tasks x no OpenMP threads

MPI task timing breakdown:
Section |  min time  |  avg time  |  max time  |%varavg| %total
---------------------------------------------------------------
Pair    | 7.8046     | 7.8046     | 7.8046     |   0.0 | 88.01
Neigh   | 0.767      | 0.767      | 0.767      |   0.0 |  8.65
Comm    | 0.1033     | 0.1033     | 0.1033     |   0.0 |  1.16
Output  | 0.00080535 | 0.00080535 | 0.00080535 |   0.0 |  0.01
Modify  | 0.16745    | 0.16745    | 0.16745    |   0.0 |  1.89
Other   |            | 0.02511    |            |       |  0.28

Nlocal:        3375.00 ave        3375 max        3375 min
Histogram: 1 0 0 0 0 0 0 0 0 0
Nghost:        5446.00 ave        5446 max        5446 min
Histogram: 1 0 0 0 0 0 0 0 0 0
Neighs:        161472.0 ave      161472 max      161472 min
Histogram: 1 0 0 0 0 0 0 0 0 0

Total # of neighbors = 161472
Ave neighs/atom = 47.843556
Neighbor list builds = 125
Dangerous builds not checked
variable        diff_accum equal ${diff_accum}+${diff_integ}/(3*${loop_iterations})
variable        diff_accum equal 0.0259118747580784+${diff_integ}/(3*${loop_iterations})
variable        diff_accum equal 0.0259118747580784+0.6845741002092/(3*${loop_iterations})
variable        diff_accum equal 0.0259118747580784+0.6845741002092/(3*25)
unfix           fixVACF
write_data      liquid.T${temp}.rho${rho}.data
write_data      liquid.T1.5.rho${rho}.data
write_data      liquid.T1.5.rho0.64.data
System init for write_data ...
print           "" append log.vacf.T${temp}.rho${rho}.txt screen no
print           "" append log.vacf.T1.5.rho${rho}.txt screen no
print           "" append log.vacf.T1.5.rho0.64.txt screen no

next            loop_counter
jump            SELF loop
clear

pair_style	lj/smooth 2.5 3.0

read_data       liquid.T${temp}.rho${rho}.data
read_data       liquid.T1.5.rho${rho}.data
read_data       liquid.T1.5.rho0.64.data
Reading data file ...
  orthogonal box = (0.0000000 0.0000000 0.0000000) to (17.405958 17.405958 17.405958)
  1 by 1 by 1 MPI processor grid
  reading atoms ...
  3375 atoms
  reading velocities ...
  3375 velocities
  read_data CPU = 0.009 seconds

neighbor	0.3 bin
neigh_modify	every 20 delay 0 check no

fix		1 all nve
timestep        0.002
thermo		50

reset_timestep  0
compute         myVACF all vacf

fix             fixVACF all vector 1 c_myVACF[4]
variable        diff_integ equal dt*trap(f_fixVACF)
variable        curVACF equal c_myVACF[4]

variable        step0 equal step
variable        step0 equal $(v_step0)
variable        step0 equal 0
variable        dtime equal (step-${step0})*dt
variable        dtime equal (step-0)*dt
fix             print_vacf all print 2 "${dtime} ${curVACF} ${diff_integ}" append log.vacf.T${temp}.rho${rho}.txt screen no
fix             print_vacf all print 2 "${dtime} ${curVACF} ${diff_integ}" append log.vacf.T1.5.rho${rho}.txt screen no
fix             print_vacf all print 2 "${dtime} ${curVACF} ${diff_integ}" append log.vacf.T1.5.rho0.64.txt screen no
thermo_style	custom step time temp ke pe etotal press

run             ${loop_length}
run             2500
Neighbor list info ...
  update every 20 steps, delay 0 steps, check no
  max neighbors/atom: 2000, page size: 100000
  master list distance cutoff = 3.3
  ghost atom cutoff = 3.3
  binsize = 1.65, bins = 11 11 11
  1 neighbor lists, perpetual/occasional/extra = 1 0 0
  (1) pair lj/smooth, perpetual
      attributes: half, newton on
      pair build: half/bin/atomonly/newton
      stencil: half/bin/3d
      bin: standard
Per MPI rank memory allocation (min/avg/max) = 3.552 | 3.552 | 3.552 Mbytes
Step Time Temp KinEng PotEng TotEng Press 
       0            0    1.4909977    2.2358338   -4.0099654   -1.7741315    1.4224732 
      50          0.1    1.5090431    2.2628939   -4.0369913   -1.7740974    1.3041413 
     100          0.2     1.502339    2.2528408   -4.0266699   -1.7738291     1.318953 
     150          0.3    1.5146881     2.271359   -4.0450822   -1.7737232    1.2680162 
     200          0.4    1.5205885     2.280207   -4.0538007   -1.7735938    1.1945503 
     250          0.5    1.5094751    2.2635417   -4.0373858    -1.773844    1.2650868 
     300          0.6    1.5109522    2.2657568   -4.0398281   -1.7740713    1.2932629 
     350          0.7    1.5118526    2.2671069   -4.0415013   -1.7743944    1.3309592 
     400          0.8    1.4919488    2.2372602    -4.011137   -1.7738768    1.4678747 
     450          0.9    1.5107695    2.2654828   -4.0386171   -1.7731343    1.3508067 
     500            1     1.517947    2.2762458   -4.0493003   -1.7730544    1.2876005 
     550          1.1    1.5011933    2.2511228   -4.0244536   -1.7733309    1.3703412 
     600          1.2    1.4927037    2.2383921   -4.0118463   -1.7734543    1.4007354 
     650          1.3    1.4889426    2.2327521    -4.006647   -1.7738949    1.3755777 
     700          1.4    1.5153719    2.2723843   -4.0463328   -1.7739485    1.2559389 
     750          1.5    1.4875937    2.2307295   -4.0042727   -1.7735433    1.4199882 
     800          1.6     1.508171    2.2615863   -4.0348239   -1.7732377     1.318479 
     850          1.7    1.5061027    2.2584847   -4.0320901   -1.7736055    1.3936464 
     900          1.8    1.4859908    2.2283258   -4.0021126   -1.7737868    1.4459131 
     950          1.9    1.5034936    2.2545722   -4.0281849   -1.7736127    1.3159814 
    1000            2    1.4929974    2.2388326   -4.0128064   -1.7739739    1.4095159 
    1050          2.1    1.5014527    2.2515117   -4.0254026   -1.7738909     1.366739 
    1100          2.2    1.5034312    2.2544786   -4.0283272   -1.7738487    1.3517518 
    1150          2.3    1.5106139    2.2652494     -4.03886   -1.7736106    1.3356582 
    1200          2.4     1.508394    2.2619206   -4.0357393   -1.7738186    1.3601727 
    1250          2.5    1.4986327     2.247283   -4.0214106   -1.7741276    1.3820472 
    1300          2.6    1.5072687    2.2602332   -4.0340412   -1.7738081    1.3250448 
    1350          2.7    1.5144775    2.2710432   -4.0449383   -1.7738951    1.2807028 
    1400          2.8    1.4972967    2.2452795   -4.0192527   -1.7739732    1.3957887 
    1450          2.9    1.5086664    2.2623291   -4.0365755   -1.7742465    1.3518211 
    1500            3    1.5119523    2.2672565   -4.0411993   -1.7739428     1.312941 
    1550          3.1    1.5031276    2.2540233   -4.0277173    -1.773694    1.3395252 
    1600          3.2    1.5090027    2.2628333   -4.0368315   -1.7739981    1.3492759 
    1650          3.3    1.5060956     2.258474   -4.0321179    -1.773644    1.3354468 
    1700          3.4    1.5178098    2.2760401   -4.0493835   -1.7733433    1.2527062 
    1750          3.5    1.4977955    2.2460276   -4.0195045   -1.7734769     1.356896 
    1800          3.6    1.4853771    2.2274055   -4.0013131   -1.7739076    1.4402067 
    1850          3.7    1.4952734    2.2422455   -4.0158032   -1.7735577    1.4189464 
    1900          3.8    1.4981974    2.2466302   -4.0203735   -1.7737432    1.3731511 
    1950          3.9    1.4923996    2.2379361   -4.0114333   -1.7734972    1.3739945 
    2000            4    1.4894968    2.2335832   -4.0070594   -1.7734762    1.4112198 
    2050          4.1    1.4963241    2.2438211   -4.0179162   -1.7740951    1.3823613 
    2100          4.2    1.5070577    2.2599167   -4.0340452   -1.7741285    1.3186791 
    2150          4.3    1.4874819    2.2305617   -4.0046154   -1.7740537    1.4228265 
    2200          4.4    1.4996085    2.2487463   -4.0225381   -1.7737918    1.4120115 
    2250          4.5    1.5009804    2.2508035   -4.0245583   -1.7737548    1.4297132 
    2300          4.6    1.5075135    2.2606003   -4.0340217   -1.7734214    1.3570776 
    2350          4.7    1.5050444    2.2568978    -4.030448   -1.7735502    1.3541009 
    2400          4.8    1.4873426    2.2303529   -4.0040007   -1.7736478     1.427231 
    2450          4.9    1.5127097    2.2683922   -4.0419468   -1.7735546    1.3015521 
    2500            5    1.4928135    2.2385567   -4.0120142   -1.7734575    1.4095319 
Loop time of 8.91684 on 1 procs for 2500 steps with 3375 atoms

Performance: 48447.649 tau/day, 280.368 timesteps/s
99.8% CPU use with 1 MPI tasks x no OpenMP threads

MPI task timing breakdown:
Section |  min time  |  avg time  |  max time  |%varavg| %total
---------------------------------------------------------------
Pair    | 7.8599     | 7.8599     | 7.8599     |   0.0 | 88.15
Neigh   | 0.76296    | 0.76296    | 0.76296    |   0.0 |  8.56
Comm    | 0.10314    | 0.10314    | 0.10314    |   0.0 |  1.16
Output  | 0.00081379 | 0.00081379 | 0.00081379 |   0.0 |  0.01
Modify  | 0.16475    | 0.16475    | 0.16475    |   0.0 |  1.85
Other   |            | 0.02529    |            |       |  0.28

Nlocal:        3375.00 ave        3375 max        3375 min
Histogram: 1 0 0 0 0 0 0 0 0 0
Nghost:        5538.00 ave        5538 max        5538 min
Histogram: 1 0 0 0 0 0 0 0 0 0
Neighs:        161620.0 ave      161620 max      161620 min
Histogram: 1 0 0 0 0 0 0 0 0 0

Total # of neighbors = 161620
Ave neighs/atom = 47.887407
Neighbor list builds = 125
Dangerous builds not checked
variable        diff_accum equal ${diff_accum}+${diff_integ}/(3*${loop_iterations})
variable        diff_accum equal 0.0350395294275344+${diff_integ}/(3*${loop_iterations})
variable        diff_accum equal 0.0350395294275344+0.597304764598908/(3*${loop_iterations})
variable        diff_accum equal 0.0350395294275344+0.597304764598908/(3*25)
unfix           fixVACF
write_data      liquid.T${temp}.rho${rho}.data
write_data      liquid.T1.5.rho${rho}.data
write_data      liquid.T1.5.rho0.64.data
System init for write_data ...
print           "" append log.vacf.T${temp}.rho${rho}.txt screen no
print           "" append log.vacf.T1.5.rho${rho}.txt screen no
print           "" append log.vacf.T1.5.rho0.64.txt screen no

next            loop_counter
jump            SELF loop
clear

pair_style	lj/smooth 2.5 3.0

read_data       liquid.T${temp}.rho${rho}.data
read_data       liquid.T1.5.rho${rho}.data
read_data       liquid.T1.5.rho0.64.data
Reading data file ...
  orthogonal box = (0.0000000 0.0000000 0.0000000) to (17.405958 17.405958 17.405958)
  1 by 1 by 1 MPI processor grid
  reading atoms ...
  3375 atoms
  reading velocities ...
  3375 velocities
  read_data CPU = 0.009 seconds

neighbor	0.3 bin
neigh_modify	every 20 delay 0 check no

fix		1 all nve
timestep        0.002
thermo		50

reset_timestep  0
compute         myVACF all vacf

fix             fixVACF all vector 1 c_myVACF[4]
variable        diff_integ equal dt*trap(f_fixVACF)
variable        curVACF equal c_myVACF[4]

variable        step0 equal step
variable        step0 equal $(v_step0)
variable        step0 equal 0
variable        dtime equal (step-${step0})*dt
variable        dtime equal (step-0)*dt
fix             print_vacf all print 2 "${dtime} ${curVACF} ${diff_integ}" append log.vacf.T${temp}.rho${rho}.txt screen no
fix             print_vacf all print 2 "${dtime} ${curVACF} ${diff_integ}" append log.vacf.T1.5.rho${rho}.txt screen no
fix             print_vacf all print 2 "${dtime} ${curVACF} ${diff_integ}" append log.vacf.T1.5.rho0.64.txt screen no
thermo_style	custom step time temp ke pe etotal press

run             ${loop_length}
run             2500
Neighbor list info ...
  update every 20 steps, delay 0 steps, check no
  max neighbors/atom: 2000, page size: 100000
  master list distance cutoff = 3.3
  ghost atom cutoff = 3.3
  binsize = 1.65, bins = 11 11 11
  1 neighbor lists, perpetual/occasional/extra = 1 0 0
  (1) pair lj/smooth, perpetual
      attributes: half, newton on
      pair build: half/bin/atomonly/newton
      stencil: half/bin/3d
      bin: standard
Per MPI rank memory allocation (min/avg/max) = 3.556 | 3.556 | 3.556 Mbytes
Step Time Temp KinEng PotEng TotEng Press 
       0            0    1.4928135    2.2385567   -4.0120142   -1.7734575    1.4095319 
      50          0.1    1.5085873    2.2622105   -4.0358222   -1.7736117    1.3281611 
     100          0.2    1.5201406    2.2795353    -4.053179   -1.7736437    1.2692374 
     150          0.3    1.4990166    2.2478586   -4.0218568   -1.7739982    1.3719309 
     200          0.4    1.5007925    2.2505217   -4.0238301   -1.7733084    1.3548976 
     250          0.5    1.5108522    2.2656068   -4.0393108    -1.773704    1.3313031 
     300          0.6     1.506786    2.2595093   -4.0327823   -1.7732731    1.3510787 
     350          0.7    1.5200007    2.2793254   -4.0530169   -1.7736914    1.2866456 
     400          0.8    1.5049748    2.2567933    -4.030939   -1.7741457    1.3117569 
     450          0.9    1.5016237    2.2517682   -4.0256178   -1.7738496    1.3358489 
     500            1    1.5203794    2.2798934   -4.0529508   -1.7730573    1.2565846 
     550          1.1    1.4831938    2.2241315   -3.9972743   -1.7731428    1.4308481 
     600          1.2    1.5134835    2.2695526    -4.042918   -1.7733653    1.2649398 
     650          1.3    1.4961139    2.2435059   -4.0170597   -1.7735539    1.3143564 
     700          1.4     1.523526    2.2846119   -4.0581842   -1.7735723    1.2025722 
     750          1.5    1.4995584    2.2486712   -4.0217146   -1.7730435    1.3691028 
     800          1.6    1.4937972    2.2400319   -4.0134471   -1.7734152    1.4141783 
     850          1.7    1.4874092    2.2304527   -4.0045089   -1.7740562    1.4372641 
     900          1.8     1.495298    2.2422825   -4.0162009   -1.7739184     1.379562 
     950          1.9    1.4977305      2.24593   -4.0197659   -1.7738359    1.3480772 
    1000            2    1.5010957    2.2509764   -4.0245301   -1.7735537    1.3503407 
    1050          2.1    1.4960003    2.2433356   -4.0169297   -1.7735941    1.3829924 
    1100          2.2    1.5058387    2.2580888   -4.0317441   -1.7736553    1.3384673 
    1150          2.3     1.504052    2.2554096   -4.0292774   -1.7738679    1.3790668 
    1200          2.4     1.505004    2.2568371   -4.0305966   -1.7737595    1.3887621 
    1250          2.5    1.4994623    2.2485271   -4.0225737   -1.7740466    1.4151321 
    1300          2.6    1.5141889    2.2706104   -4.0440361   -1.7734258    1.3599337 
    1350          2.7    1.5109502    2.2657538   -4.0397855   -1.7740317    1.3223042 
    1400          2.8    1.4941571    2.2405715   -4.0146439   -1.7740724    1.3877275 
    1450          2.9    1.4937126     2.239905   -4.0137776   -1.7738725    1.4102536 
    1500            3     1.493905    2.2401936   -4.0139914   -1.7737978    1.3529832 
    1550          3.1    1.4949968    2.2418307   -4.0156173   -1.7737866    1.3517127 
    1600          3.2     1.492656    2.2383206   -4.0117662   -1.7734456     1.364245 
    1650          3.3     1.503107    2.2539924    -4.027858   -1.7738656    1.2957117 
    1700          3.4      1.50022    2.2496633   -4.0233637   -1.7737004    1.3180496 
    1750          3.5    1.4962573    2.2437209   -4.0172613   -1.7735403    1.3271344 
    1800          3.6    1.5016488    2.2518058   -4.0257322   -1.7739264     1.328662 
    1850          3.7    1.4901533    2.2345676   -4.0085551   -1.7739875    1.4208238 
    1900          3.8     1.485454    2.2275208   -4.0015345   -1.7740137    1.4407618 
    1950          3.9    1.5032231    2.2541665   -4.0277059   -1.7735393    1.3538312 
    2000            4    1.5080314    2.2613769   -4.0349846   -1.7736077    1.2918282 
    2050          4.1     1.494786    2.2415147   -4.0153844   -1.7738697    1.3759142 
    2100          4.2    1.5014374    2.2514887   -4.0252035   -1.7737147    1.3783684 
    2150          4.3    1.5320554    2.2974022   -4.0711377   -1.7737355    1.2301472 
    2200          4.4    1.5170799    2.2749456   -4.0484894   -1.7735438    1.3152289 
    2250          4.5     1.503686    2.2548607   -4.0283019   -1.7734412     1.384846 
    2300          4.6    1.5154651    2.2725241   -4.0467314   -1.7742073      1.35856 
    2350          4.7    1.5017234    2.2519177   -4.0260724   -1.7741547    1.4450499 
    2400          4.8    1.5093857    2.2634077   -4.0372863   -1.7738785    1.3864625 
    2450          4.9    1.5251768    2.2870873   -4.0608799   -1.7737926    1.3086113 
    2500            5    1.5128344    2.2685792   -4.0424003   -1.7738212    1.3777214 
Loop time of 8.88228 on 1 procs for 2500 steps with 3375 atoms

Performance: 48636.139 tau/day, 281.459 timesteps/s
99.7% CPU use with 1 MPI tasks x no OpenMP threads

MPI task timing breakdown:
Section |  min time  |  avg time  |  max time  |%varavg| %total
---------------------------------------------------------------
Pair    | 7.8308     | 7.8308     | 7.8308     |   0.0 | 88.16
Neigh   | 0.75622    | 0.75622    | 0.75622    |   0.0 |  8.51
Comm    | 0.10444    | 0.10444    | 0.10444    |   0.0 |  1.18
Output  | 0.0008065  | 0.0008065  | 0.0008065  |   0.0 |  0.01
Modify  | 0.16482    | 0.16482    | 0.16482    |   0.0 |  1.86
Other   |            | 0.02518    |            |       |  0.28

Nlocal:        3375.00 ave        3375 max        3375 min
Histogram: 1 0 0 0 0 0 0 0 0 0
Nghost:        5500.00 ave        5500 max        5500 min
Histogram: 1 0 0 0 0 0 0 0 0 0
Neighs:        161350.0 ave      161350 max      161350 min
Histogram: 1 0 0 0 0 0 0 0 0 0

Total # of neighbors = 161350
Ave neighs/atom = 47.807407
Neighbor list builds = 125
Dangerous builds not checked
variable        diff_accum equal ${diff_accum}+${diff_integ}/(3*${loop_iterations})
variable        diff_accum equal 0.0430035929555198+${diff_integ}/(3*${loop_iterations})
variable        diff_accum equal 0.0430035929555198+0.622372605210632/(3*${loop_iterations})
variable        diff_accum equal 0.0430035929555198+0.622372605210632/(3*25)
unfix           fixVACF
write_data      liquid.T${temp}.rho${rho}.data
write_data      liquid.T1.5.rho${rho}.data
write_data      liquid.T1.5.rho0.64.data
System init for write_data ...
print           "" append log.vacf.T${temp}.rho${rho}.txt screen no
print           "" append log.vacf.T1.5.rho${rho}.txt screen no
print           "" append log.vacf.T1.5.rho0.64.txt screen no

next            loop_counter
jump            SELF loop
clear

pair_style	lj/smooth 2.5 3.0

read_data       liquid.T${temp}.rho${rho}.data
read_data       liquid.T1.5.rho${rho}.data
read_data       liquid.T1.5.rho0.64.data
Reading data file ...
  orthogonal box = (0.0000000 0.0000000 0.0000000) to (17.405958 17.405958 17.405958)
  1 by 1 by 1 MPI processor grid
  reading atoms ...
  3375 atoms
  reading velocities ...
  3375 velocities
  read_data CPU = 0.009 seconds

neighbor	0.3 bin
neigh_modify	every 20 delay 0 check no

fix		1 all nve
timestep        0.002
thermo		50

reset_timestep  0
compute         myVACF all vacf

fix             fixVACF all vector 1 c_myVACF[4]
variable        diff_integ equal dt*trap(f_fixVACF)
variable        curVACF equal c_myVACF[4]

variable        step0 equal step
variable        step0 equal $(v_step0)
variable        step0 equal 0
variable        dtime equal (step-${step0})*dt
variable        dtime equal (step-0)*dt
fix             print_vacf all print 2 "${dtime} ${curVACF} ${diff_integ}" append log.vacf.T${temp}.rho${rho}.txt screen no
fix             print_vacf all print 2 "${dtime} ${curVACF} ${diff_integ}" append log.vacf.T1.5.rho${rho}.txt screen no
fix             print_vacf all print 2 "${dtime} ${curVACF} ${diff_integ}" append log.vacf.T1.5.rho0.64.txt screen no
thermo_style	custom step time temp ke pe etotal press

run             ${loop_length}
run             2500
Neighbor list info ...
  update every 20 steps, delay 0 steps, check no
  max neighbors/atom: 2000, page size: 100000
  master list distance cutoff = 3.3
  ghost atom cutoff = 3.3
  binsize = 1.65, bins = 11 11 11
  1 neighbor lists, perpetual/occasional/extra = 1 0 0
  (1) pair lj/smooth, perpetual
      attributes: half, newton on
      pair build: half/bin/atomonly/newton
      stencil: half/bin/3d
      bin: standard
Per MPI rank memory allocation (min/avg/max) = 3.556 | 3.556 | 3.556 Mbytes
Step Time Temp KinEng PotEng TotEng Press 
       0            0    1.5128344    2.2685792   -4.0424003   -1.7738212    1.3777214 
      50          0.1     1.516669    2.2743294   -4.0476881   -1.7733587     1.327324 
     100          0.2    1.5125218    2.2681104   -4.0420518   -1.7739413    1.3190045 
     150          0.3    1.5066815    2.2593526   -4.0334594   -1.7741068    1.3084028 
     200          0.4    1.5080299    2.2613746   -4.0352981   -1.7739236    1.2827373 
     250          0.5    1.5047185     2.256409   -4.0297596   -1.7733506    1.3419861 
     300          0.6    1.5012616    2.2512252   -4.0253639   -1.7741388    1.3772332 
     350          0.7    1.5013918    2.2514203   -4.0253445   -1.7739241    1.4236247 
     400          0.8    1.5084699    2.2620345   -4.0358841   -1.7738496    1.3879828 
     450          0.9    1.4921247    2.2375239   -4.0115656   -1.7740416    1.4321463 
     500            1    1.5062015    2.2586329   -4.0324971   -1.7738642    1.3295995 
     550          1.1     1.510489    2.2650622   -4.0387073   -1.7736451    1.2826249 
     600          1.2    1.4815869    2.2217219   -3.9956771   -1.7739551    1.4512655 
     650          1.3    1.4903841    2.2349138   -4.0089058    -1.773992    1.4250088 
     700          1.4    1.5128288    2.2685708   -4.0423861   -1.7738153      1.28689 
     750          1.5    1.4938881    2.2401682   -4.0140904   -1.7739222    1.3973604 
     800          1.6    1.5029305    2.2537277   -4.0278395   -1.7741118    1.4072188 
     850          1.7     1.509282    2.2632523   -4.0372171   -1.7739648    1.3825816 
     900          1.8    1.5094417    2.2634917   -4.0371013   -1.7736096    1.3410609 
     950          1.9     1.514775    2.2714892   -4.0452246   -1.7737354    1.2878146 
    1000            2    1.5132269    2.2691677   -4.0427895   -1.7736218    1.2955335 
    1050          2.1    1.4900515     2.234415   -4.0082064   -1.7737914    1.4144506 
    1100          2.2    1.5045941    2.2562224   -4.0301609   -1.7739385    1.3180012 
    1150          2.3    1.5026441    2.2532983   -4.0269656   -1.7736674    1.3553703 
    1200          2.4     1.502108    2.2524944   -4.0263553   -1.7738608     1.403791 
    1250          2.5    1.5214968     2.281569   -4.0555313   -1.7739623    1.3526617 
    1300          2.6    1.5012982    2.2512801   -4.0247466   -1.7734665    1.4285331 
    1350          2.7    1.5206451    2.2802919   -4.0535498    -1.773258    1.3229508 
    1400          2.8    1.5040207    2.2553627   -4.0288942   -1.7735316    1.3813548 
    1450          2.9    1.5119572    2.2672638    -4.041141   -1.7738772    1.2505394 
    1500            3    1.5042276    2.2556729   -4.0290051   -1.7733322    1.3040744 
    1550          3.1    1.5039032    2.2551863   -4.0289239   -1.7737376    1.3399365 
    1600          3.2    1.5103347    2.2648308   -4.0385992   -1.7737685    1.3123281 
    1650          3.3    1.5145564    2.2711614   -4.0451565    -1.773995    1.2912983 
    1700          3.4    1.4928042    2.2385428   -4.0118052   -1.7732624    1.3517882 
    1750          3.5    1.5036585    2.2548194   -4.0282068   -1.7733874     1.317939 
    1800          3.6    1.4947787    2.2415037   -4.0154118   -1.7739081    1.3534785 
    1850          3.7     1.501954    2.2522634   -4.0262922   -1.7740288    1.3317812 
    1900          3.8    1.5010488     2.250906   -4.0247044   -1.7737984    1.3304585 
    1950          3.9    1.4914465    2.2365068   -4.0099545   -1.7734477    1.3563036 
    2000            4    1.4912644    2.2362338   -4.0097991   -1.7735653    1.3740463 
    2050          4.1    1.5242198    2.2856523   -4.0595461   -1.7738938    1.2244929 
    2100          4.2    1.4960926     2.243474   -4.0173712   -1.7738972    1.3826738 
    2150          4.3    1.4852639    2.2272358    -4.000767   -1.7735312    1.4742165 
    2200          4.4    1.4903048    2.2347948    -4.008625   -1.7738303    1.4386922 
    2250          4.5    1.5119422    2.2672413   -4.0410639   -1.7738226     1.336798 
    2300          4.6     1.513596    2.2697213   -4.0432777   -1.7735565    1.3254097 
    2350          4.7    1.5083113    2.2617967   -4.0354003   -1.7736036    1.3396154 
    2400          4.8    1.5195529    2.2786539   -4.0525104   -1.7738565    1.2734859 
    2450          4.9      1.51101    2.2658435    -4.039644   -1.7738005    1.3191997 
    2500            5    1.5067119    2.2593982   -4.0330107   -1.7736125    1.3568128 
Loop time of 8.88288 on 1 procs for 2500 steps with 3375 atoms

Performance: 48632.875 tau/day, 281.440 timesteps/s
99.7% CPU use with 1 MPI tasks x no OpenMP threads

MPI task timing breakdown:
Section |  min time  |  avg time  |  max time  |%varavg| %total
---------------------------------------------------------------
Pair    | 7.8213     | 7.8213     | 7.8213     |   0.0 | 88.05
Neigh   | 0.76296    | 0.76296    | 0.76296    |   0.0 |  8.59
Comm    | 0.10331    | 0.10331    | 0.10331    |   0.0 |  1.16
Output  | 0.00082423 | 0.00082423 | 0.00082423 |   0.0 |  0.01
Modify  | 0.16905    | 0.16905    | 0.16905    |   0.0 |  1.90
Other   |            | 0.02544    |            |       |  0.29

Nlocal:        3375.00 ave        3375 max        3375 min
Histogram: 1 0 0 0 0 0 0 0 0 0
Nghost:        5508.00 ave        5508 max        5508 min
Histogram: 1 0 0 0 0 0 0 0 0 0
Neighs:        161543.0 ave      161543 max      161543 min
Histogram: 1 0 0 0 0 0 0 0 0 0

Total # of neighbors = 161543
Ave neighs/atom = 47.864593
Neighbor list builds = 125
Dangerous builds not checked
variable        diff_accum equal ${diff_accum}+${diff_integ}/(3*${loop_iterations})
variable        diff_accum equal 0.0513018943583282+${diff_integ}/(3*${loop_iterations})
variable        diff_accum equal 0.0513018943583282+0.667576624778229/(3*${loop_iterations})
variable        diff_accum equal 0.0513018943583282+0.667576624778229/(3*25)
unfix           fixVACF
write_data      liquid.T${temp}.rho${rho}.data
write_data      liquid.T1.5.rho${rho}.data
write_data      liquid.T1.5.rho0.64.data
System init for write_data ...
print           "" append log.vacf.T${temp}.rho${rho}.txt screen no
print           "" append log.vacf.T1.5.rho${rho}.txt screen no
print           "" append log.vacf.T1.5.rho0.64.txt screen no

next            loop_counter
jump            SELF loop
clear

pair_style	lj/smooth 2.5 3.0

read_data       liquid.T${temp}.rho${rho}.data
read_data       liquid.T1.5.rho${rho}.data
read_data       liquid.T1.5.rho0.64.data
Reading data file ...
  orthogonal box = (0.0000000 0.0000000 0.0000000) to (17.405958 17.405958 17.405958)
  1 by 1 by 1 MPI processor grid
  reading atoms ...
  3375 atoms
  reading velocities ...
  3375 velocities
  read_data CPU = 0.009 seconds

neighbor	0.3 bin
neigh_modify	every 20 delay 0 check no

fix		1 all nve
timestep        0.002
thermo		50

reset_timestep  0
compute         myVACF all vacf

fix             fixVACF all vector 1 c_myVACF[4]
variable        diff_integ equal dt*trap(f_fixVACF)
variable        curVACF equal c_myVACF[4]

variable        step0 equal step
variable        step0 equal $(v_step0)
variable        step0 equal 0
variable        dtime equal (step-${step0})*dt
variable        dtime equal (step-0)*dt
fix             print_vacf all print 2 "${dtime} ${curVACF} ${diff_integ}" append log.vacf.T${temp}.rho${rho}.txt screen no
fix             print_vacf all print 2 "${dtime} ${curVACF} ${diff_integ}" append log.vacf.T1.5.rho${rho}.txt screen no
fix             print_vacf all print 2 "${dtime} ${curVACF} ${diff_integ}" append log.vacf.T1.5.rho0.64.txt screen no
thermo_style	custom step time temp ke pe etotal press

run             ${loop_length}
run             2500
Neighbor list info ...
  update every 20 steps, delay 0 steps, check no
  max neighbors/atom: 2000, page size: 100000
  master list distance cutoff = 3.3
  ghost atom cutoff = 3.3
  binsize = 1.65, bins = 11 11 11
  1 neighbor lists, perpetual/occasional/extra = 1 0 0
  (1) pair lj/smooth, perpetual
      attributes: half, newton on
      pair build: half/bin/atomonly/newton
      stencil: half/bin/3d
      bin: standard
Per MPI rank memory allocation (min/avg/max) = 3.555 | 3.555 | 3.555 Mbytes
Step Time Temp KinEng PotEng TotEng Press 
       0            0    1.5067119    2.2593982   -4.0330107   -1.7736125    1.3568128 
      50          0.1     1.499691    2.2488699   -4.0229211   -1.7740512    1.3938599 
     100          0.2    1.5137986    2.2700252   -4.0440669   -1.7740417    1.3370193 
     150          0.3    1.4963775    2.2439012   -4.0181277   -1.7742265    1.4037576 
     200          0.4    1.5139268    2.2702174   -4.0440248   -1.7738074    1.2409779 
     250          0.5    1.5020592    2.2524212   -4.0264458   -1.7740246    1.3254112 
     300          0.6    1.5159496    2.2732507   -4.0470729   -1.7738222    1.3189943 
     350          0.7    1.5018499    2.2521074   -4.0261839   -1.7740766    1.4250901 
     400          0.8    1.5076195    2.2607593    -4.034615   -1.7738558    1.3559346 
     450          0.9    1.5047488    2.2564544   -4.0302527   -1.7737984    1.3650336 
     500            1    1.4942456    2.2407043   -4.0142623    -1.773558    1.4137192 
     550          1.1    1.4993572    2.2483694   -4.0221856   -1.7738162    1.3825986 
     600          1.2    1.5194454    2.2784928   -4.0518535   -1.7733608    1.2839484 
     650          1.3    1.4983843    2.2469106   -4.0202544   -1.7733439    1.3333953 
     700          1.4    1.5162091    2.2736397    -4.047185   -1.7735452    1.2345861 
     750          1.5    1.5230454    2.2838912   -4.0574613   -1.7735701    1.2498428 
     800          1.6    1.5027461    2.2534513   -4.0274279   -1.7739766    1.3484031 
     850          1.7    1.5221401    2.2825336   -4.0564467   -1.7739131    1.2681841 
     900          1.8    1.5041263     2.255521   -4.0290976   -1.7735766    1.3480943 
     950          1.9    1.5187518    2.2774527   -4.0510156    -1.773563    1.2822554 
    1000            2    1.4946983    2.2413832   -4.0149527   -1.7735695    1.4049673 
    1050          2.1    1.4962595    2.2437242   -4.0175403   -1.7738161     1.366099 
    1100          2.2    1.5053325    2.2573298   -4.0313944   -1.7740647    1.3129935 
    1150          2.3    1.5031275    2.2540232   -4.0278967   -1.7738736    1.3219881 
    1200          2.4    1.5143066    2.2707869   -4.0444001   -1.7736132     1.281253 
    1250          2.5    1.5142948    2.2707692   -4.0447299   -1.7739607    1.3040845 
    1300          2.6    1.5163662    2.2738753   -4.0474342   -1.7735588    1.3163577 
    1350          2.7    1.5161339     2.273527   -4.0472794   -1.7737524    1.3192195 
    1400          2.8    1.4994504    2.2485092   -4.0224362    -1.773927    1.4191678 
    1450          2.9    1.5070943    2.2599717   -4.0335467    -1.773575    1.3747818 
    1500            3    1.5283771    2.2918863   -4.0653972   -1.7735109    1.2582506 
    1550          3.1     1.494642    2.2412987   -4.0150173   -1.7737186    1.4474976 
    1600          3.2    1.5253475    2.2873433    -4.060888   -1.7735447    1.2945309 
    1650          3.3    1.5103649     2.264876   -4.0383544   -1.7734784    1.3500837 
    1700          3.4    1.5120758    2.2674416   -4.0413419   -1.7739003    1.3336704 
    1750          3.5    1.4970451    2.2449024   -4.0182755   -1.7733732    1.3882607 
    1800          3.6    1.4824869    2.2230714   -3.9966489   -1.7735774    1.4454345 
    1850          3.7    1.5055923    2.2577194   -4.0310407   -1.7733214    1.3061182 
    1900          3.8    1.5187092    2.2773888   -4.0511499   -1.7737611    1.1802128 
    1950          3.9    1.5018353    2.2520855   -4.0259639   -1.7738784    1.3053772 
    2000            4    1.5028247    2.2535691   -4.0268421    -1.773273    1.3478725 
    2050          4.1    1.5066491     2.259304    -4.032645   -1.7733409    1.3451595 
    2100          4.2    1.5064408    2.2589917   -4.0322874   -1.7732957    1.3601242 
    2150          4.3    1.5125834    2.2682028   -4.0416606   -1.7734578    1.3279001 
    2200          4.4    1.5076466    2.2607998   -4.0342631   -1.7734633    1.3424112 
    2250          4.5    1.5049189    2.2567095   -4.0300271   -1.7733176    1.3152892 
    2300          4.6    1.5015826    2.2517065   -4.0255004    -1.773794    1.3067701 
    2350          4.7     1.492265    2.2377343   -4.0118937   -1.7741594    1.3685465 
    2400          4.8    1.5144673    2.2710279   -4.0452882   -1.7742603    1.2853525 
    2450          4.9    1.5165904    2.2742116   -4.0479744   -1.7737628     1.275473 
    2500            5    1.4964322    2.2439832   -4.0175633   -1.7735801    1.3571041 
Loop time of 8.88363 on 1 procs for 2500 steps with 3375 atoms

Performance: 48628.758 tau/day, 281.416 timesteps/s
99.7% CPU use with 1 MPI tasks x no OpenMP threads

MPI task timing breakdown:
Section |  min time  |  avg time  |  max time  |%varavg| %total
---------------------------------------------------------------
Pair    | 7.8251     | 7.8251     | 7.8251     |   0.0 | 88.08
Neigh   | 0.76159    | 0.76159    | 0.76159    |   0.0 |  8.57
Comm    | 0.10468    | 0.10468    | 0.10468    |   0.0 |  1.18
Output  | 0.00081508 | 0.00081508 | 0.00081508 |   0.0 |  0.01
Modify  | 0.16597    | 0.16597    | 0.16597    |   0.0 |  1.87
Other   |            | 0.02553    |            |       |  0.29

Nlocal:        3375.00 ave        3375 max        3375 min
Histogram: 1 0 0 0 0 0 0 0 0 0
Nghost:        5480.00 ave        5480 max        5480 min
Histogram: 1 0 0 0 0 0 0 0 0 0
Neighs:        161536.0 ave      161536 max      161536 min
Histogram: 1 0 0 0 0 0 0 0 0 0

Total # of neighbors = 161536
Ave neighs/atom = 47.862519
Neighbor list builds = 125
Dangerous builds not checked
variable        diff_accum equal ${diff_accum}+${diff_integ}/(3*${loop_iterations})
variable        diff_accum equal 0.0602029160220379+${diff_integ}/(3*${loop_iterations})
variable        diff_accum equal 0.0602029160220379+0.71261869185999/(3*${loop_iterations})
variable        diff_accum equal 0.0602029160220379+0.71261869185999/(3*25)
unfix           fixVACF
write_data      liquid.T${temp}.rho${rho}.data
write_data      liquid.T1.5.rho${rho}.data
write_data      liquid.T1.5.rho0.64.data
System init for write_data ...
print           "" append log.vacf.T${temp}.rho${rho}.txt screen no
print           "" append log.vacf.T1.5.rho${rho}.txt screen no
print           "" append log.vacf.T1.5.rho0.64.txt screen no

next            loop_counter
jump            SELF loop
clear

pair_style	lj/smooth 2.5 3.0

read_data       liquid.T${temp}.rho${rho}.data
read_data       liquid.T1.5.rho${rho}.data
read_data       liquid.T1.5.rho0.64.data
Reading data file ...
  orthogonal box = (0.0000000 0.0000000 0.0000000) to (17.405958 17.405958 17.405958)
  1 by 1 by 1 MPI processor grid
  reading atoms ...
  3375 atoms
  reading velocities ...
  3375 velocities
  read_data CPU = 0.009 seconds

neighbor	0.3 bin
neigh_modify	every 20 delay 0 check no

fix		1 all nve
timestep        0.002
thermo		50

reset_timestep  0
compute         myVACF all vacf

fix             fixVACF all vector 1 c_myVACF[4]
variable        diff_integ equal dt*trap(f_fixVACF)
variable        curVACF equal c_myVACF[4]

variable        step0 equal step
variable        step0 equal $(v_step0)
variable        step0 equal 0
variable        dtime equal (step-${step0})*dt
variable        dtime equal (step-0)*dt
fix             print_vacf all print 2 "${dtime} ${curVACF} ${diff_integ}" append log.vacf.T${temp}.rho${rho}.txt screen no
fix             print_vacf all print 2 "${dtime} ${curVACF} ${diff_integ}" append log.vacf.T1.5.rho${rho}.txt screen no
fix             print_vacf all print 2 "${dtime} ${curVACF} ${diff_integ}" append log.vacf.T1.5.rho0.64.txt screen no
thermo_style	custom step time temp ke pe etotal press

run             ${loop_length}
run             2500
Neighbor list info ...
  update every 20 steps, delay 0 steps, check no
  max neighbors/atom: 2000, page size: 100000
  master list distance cutoff = 3.3
  ghost atom cutoff = 3.3
  binsize = 1.65, bins = 11 11 11
  1 neighbor lists, perpetual/occasional/extra = 1 0 0
  (1) pair lj/smooth, perpetual
      attributes: half, newton on
      pair build: half/bin/atomonly/newton
      stencil: half/bin/3d
      bin: standard
Per MPI rank memory allocation (min/avg/max) = 3.550 | 3.550 | 3.550 Mbytes
Step Time Temp KinEng PotEng TotEng Press 
       0            0    1.4964322    2.2439832   -4.0175633   -1.7735801    1.3571041 
      50          0.1    1.4865186    2.2291172   -4.0031745   -1.7740574    1.4193479 
     100          0.2    1.5114515    2.2665055   -4.0406085    -1.774103    1.2917075 
     150          0.3    1.4897318    2.2339355   -4.0077326   -1.7737971    1.3971888 
     200          0.4    1.5159709    2.2732826   -4.0473629   -1.7740803    1.2957551 
     250          0.5    1.5072239    2.2601659   -4.0345031   -1.7743372    1.3485705 
     300          0.6    1.4930602    2.2389268   -4.0130216   -1.7740948    1.4176601 
     350          0.7    1.5105233    2.2651136   -4.0392812   -1.7741677    1.3166181 
     400          0.8    1.5074168    2.2604552   -4.0345508   -1.7740955    1.3256837 
     450          0.9    1.4877133    2.2309087   -4.0051084   -1.7741997    1.4140949 
     500            1     1.497262    2.2452275   -4.0191699   -1.7739424    1.3979064 
     550          1.1    1.5150699    2.2719315   -4.0456098   -1.7736783    1.2976185 
     600          1.2    1.4830909    2.2239771   -3.9974996   -1.7735225    1.4370067 
     650          1.3    1.4976434    2.2457995   -4.0193409   -1.7735415    1.3550397 
     700          1.4    1.5018667    2.2521325   -4.0256223   -1.7734898    1.3668959 
     750          1.5    1.5105164    2.2651032   -4.0386295   -1.7735263    1.3624585 
     800          1.6    1.5035943    2.2547233   -4.0281194   -1.7733961    1.3483919 
     850          1.7    1.5196866    2.2788544   -4.0522486   -1.7733942    1.1912211 
     900          1.8    1.4986349    2.2472863    -4.020299   -1.7730127     1.324104 
     950          1.9    1.4912921    2.2362753   -4.0096325   -1.7733572    1.3889881 
    1000            2    1.5055719    2.2576887    -4.031094   -1.7734053    1.3400752 
    1050          2.1    1.5100424    2.2643924   -4.0375153   -1.7731229     1.305561 
    1100          2.2    1.5060602    2.2584209   -4.0318545   -1.7734336    1.2991537 
    1150          2.3    1.5097254    2.2639171   -4.0373666   -1.7734495    1.2692758 
    1200          2.4    1.4942321    2.2406841   -4.0141556   -1.7734715    1.3325344 
    1250          2.5    1.5023115    2.2527996   -4.0256236    -1.772824    1.3256938 
    1300          2.6    1.5069915    2.2598174   -4.0332216   -1.7734042     1.328009 
    1350          2.7    1.5006833     2.250358   -4.0241817   -1.7738237    1.3813452 
    1400          2.8    1.5057398    2.2579405   -4.0316077   -1.7736672    1.3259215 
    1450          2.9    1.5002252     2.249671   -4.0236455   -1.7739745     1.363131 
    1500            3    1.5068707    2.2596363    -4.033793   -1.7741568     1.333966 
    1550          3.1    1.5051467    2.2570511   -4.0309271    -1.773876    1.3943827 
    1600          3.2    1.5011758    2.2510966   -4.0248752   -1.7737786    1.4266423 
    1650          3.3    1.5081976     2.261626    -4.035341    -1.773715    1.3520761 
    1700          3.4    1.5095678    2.2636808   -4.0376157   -1.7739349    1.3166465 
    1750          3.5    1.4987934    2.2475239   -4.0214493   -1.7739254     1.421537 
    1800          3.6    1.4965078    2.2440966   -4.0181019   -1.7740054    1.4233376 
    1850          3.7    1.5071174    2.2600063   -4.0336245   -1.7736181    1.3551424 
    1900          3.8    1.5106649     2.265326   -4.0388537   -1.7735277    1.3230317 
    1950          3.9    1.5184909    2.2770615   -4.0508396   -1.7737781    1.3099906 
    2000            4    1.4794368    2.2184976    -3.992643   -1.7741454    1.4933422 
    2050          4.1    1.5187966    2.2775199   -4.0515526   -1.7740327    1.3146638 
    2100          4.2    1.4972356    2.2451879   -4.0193024   -1.7741145    1.3895319 
    2150          4.3    1.5089965     2.262824   -4.0364078   -1.7735838    1.3258392 
    2200          4.4    1.4948726    2.2416445   -4.0150398   -1.7733954    1.3948562 
    2250          4.5    1.4990146    2.2478557   -4.0213136   -1.7734579    1.3768664 
    2300          4.6    1.5024163    2.2529568    -4.026884   -1.7739272    1.3555763 
    2350          4.7    1.5016499    2.2518075   -4.0255032   -1.7736957    1.3437989 
    2400          4.8    1.4972516    2.2452119   -4.0185063   -1.7732944    1.3042158 
    2450          4.9    1.5083534    2.2618597   -4.0349055   -1.7730458    1.2407897 
    2500            5    1.4874177    2.2304655   -4.0038229   -1.7733574    1.3317105 
Loop time of 8.886 on 1 procs for 2500 steps with 3375 atoms

Performance: 48615.825 tau/day, 281.342 timesteps/s
99.7% CPU use with 1 MPI tasks x no OpenMP threads

MPI task timing breakdown:
Section |  min time  |  avg time  |  max time  |%varavg| %total
---------------------------------------------------------------
Pair    | 7.8331     | 7.8331     | 7.8331     |   0.0 | 88.15
Neigh   | 0.75707    | 0.75707    | 0.75707    |   0.0 |  8.52
Comm    | 0.10271    | 0.10271    | 0.10271    |   0.0 |  1.16
Output  | 0.00081434 | 0.00081434 | 0.00081434 |   0.0 |  0.01
Modify  | 0.16709    | 0.16709    | 0.16709    |   0.0 |  1.88
Other   |            | 0.0252     |            |       |  0.28

Nlocal:        3375.00 ave        3375 max        3375 min
Histogram: 1 0 0 0 0 0 0 0 0 0
Nghost:        5476.00 ave        5476 max        5476 min
Histogram: 1 0 0 0 0 0 0 0 0 0
Neighs:        161430.0 ave      161430 max      161430 min
Histogram: 1 0 0 0 0 0 0 0 0 0

Total # of neighbors = 161430
Ave neighs/atom = 47.831111
Neighbor list builds = 125
Dangerous builds not checked
variable        diff_accum equal ${diff_accum}+${diff_integ}/(3*${loop_iterations})
variable        diff_accum equal 0.0697044985801711+${diff_integ}/(3*${loop_iterations})
variable        diff_accum equal 0.0697044985801711+0.537363467427727/(3*${loop_iterations})
variable        diff_accum equal 0.0697044985801711+0.537363467427727/(3*25)
unfix           fixVACF
write_data      liquid.T${temp}.rho${rho}.data
write_data      liquid.T1.5.rho${rho}.data
write_data      liquid.T1.5.rho0.64.data
System init for write_data ...
print           "" append log.vacf.T${temp}.rho${rho}.txt screen no
print           "" append log.vacf.T1.5.rho${rho}.txt screen no
print           "" append log.vacf.T1.5.rho0.64.txt screen no

next            loop_counter
jump            SELF loop
clear

pair_style	lj/smooth 2.5 3.0

read_data       liquid.T${temp}.rho${rho}.data
read_data       liquid.T1.5.rho${rho}.data
read_data       liquid.T1.5.rho0.64.data
Reading data file ...
  orthogonal box = (0.0000000 0.0000000 0.0000000) to (17.405958 17.405958 17.405958)
  1 by 1 by 1 MPI processor grid
  reading atoms ...
  3375 atoms
  reading velocities ...
  3375 velocities
  read_data CPU = 0.009 seconds

neighbor	0.3 bin
neigh_modify	every 20 delay 0 check no

fix		1 all nve
timestep        0.002
thermo		50

reset_timestep  0
compute         myVACF all vacf

fix             fixVACF all vector 1 c_myVACF[4]
variable        diff_integ equal dt*trap(f_fixVACF)
variable        curVACF equal c_myVACF[4]

variable        step0 equal step
variable        step0 equal $(v_step0)
variable        step0 equal 0
variable        dtime equal (step-${step0})*dt
variable        dtime equal (step-0)*dt
fix             print_vacf all print 2 "${dtime} ${curVACF} ${diff_integ}" append log.vacf.T${temp}.rho${rho}.txt screen no
fix             print_vacf all print 2 "${dtime} ${curVACF} ${diff_integ}" append log.vacf.T1.5.rho${rho}.txt screen no
fix             print_vacf all print 2 "${dtime} ${curVACF} ${diff_integ}" append log.vacf.T1.5.rho0.64.txt screen no
thermo_style	custom step time temp ke pe etotal press

run             ${loop_length}
run             2500
Neighbor list info ...
  update every 20 steps, delay 0 steps, check no
  max neighbors/atom: 2000, page size: 100000
  master list distance cutoff = 3.3
  ghost atom cutoff = 3.3
  binsize = 1.65, bins = 11 11 11
  1 neighbor lists, perpetual/occasional/extra = 1 0 0
  (1) pair lj/smooth, perpetual
      attributes: half, newton on
      pair build: half/bin/atomonly/newton
      stencil: half/bin/3d
      bin: standard
Per MPI rank memory allocation (min/avg/max) = 3.552 | 3.552 | 3.552 Mbytes
Step Time Temp KinEng PotEng TotEng Press 
       0            0    1.4874177    2.2304655   -4.0038229   -1.7733574    1.3317105 
      50          0.1    1.4939613     2.240278   -4.0136897   -1.7734117    1.3356529 
     100          0.2    1.4996236    2.2487689   -4.0221582   -1.7733893    1.3550655 
     150          0.3    1.5055344    2.2576325   -4.0308158   -1.7731833    1.3401896 
     200          0.4    1.4885108    2.2321047   -4.0056155   -1.7735108     1.459734 
     250          0.5    1.5016198    2.2517624   -4.0255064    -1.773744    1.4265132 
     300          0.6    1.5057852    2.2580085   -4.0319581   -1.7739496    1.3606629 
     350          0.7    1.4872006    2.2301399   -4.0043997   -1.7742599    1.3971425 
     400          0.8    1.5141121    2.2704953   -4.0444507   -1.7739554    1.2503499 
     450          0.9    1.5272552    2.2902041   -4.0637337   -1.7735297     1.210256 
     500            1    1.4962978    2.2437817   -4.0177004   -1.7739187    1.3587902 
     550          1.1    1.4890477    2.2329098   -4.0066652   -1.7737554    1.3861866 
     600          1.2    1.5106805    2.2653494    -4.038904   -1.7735546     1.281347 
     650          1.3    1.5074386     2.260488   -4.0337433   -1.7732553     1.296553 
     700          1.4    1.5209945    2.2808158   -4.0540605   -1.7732447    1.2829458 
     750          1.5    1.5043067    2.2557915   -4.0291818   -1.7733903    1.3458707 
     800          1.6    1.4909268    2.2357275   -4.0095111   -1.7737836    1.4373485 
     850          1.7    1.5101682    2.2645812   -4.0385378   -1.7739567    1.3459538 
     900          1.8    1.4969617    2.2447772   -4.0186886   -1.7739114    1.4350309 
     950          1.9    1.5136567    2.2698124   -4.0435434    -1.773731    1.3604754 
    1000            2     1.526248    2.2886936   -4.0626858   -1.7739922    1.2645486 
    1050          2.1    1.4989951    2.2478265   -4.0214559   -1.7736294      1.36246 
    1100          2.2    1.4790073    2.2178536   -3.9922181   -1.7743645    1.4810232 
    1150          2.3    1.4902383    2.2346951   -4.0084579   -1.7737628    1.4432376 
    1200          2.4    1.4975934    2.2457245    -4.019975   -1.7742505    1.4180336 
    1250          2.5    1.4993862    2.2484129   -4.0224861   -1.7740732    1.3920816 
    1300          2.6    1.5065251    2.2591181   -4.0330029   -1.7738848    1.3628521 
    1350          2.7    1.5034793    2.2545507   -4.0281444   -1.7735937    1.3639341 
    1400          2.8     1.509427    2.2634697   -4.0369232   -1.7734535    1.3001187 
    1450          2.9    1.5117825    2.2670018   -4.0404126   -1.7734107    1.2794451 
    1500            3    1.5142307     2.270673    -4.044311    -1.773638    1.2515107 
    1550          3.1    1.5073279     2.260322    -4.033856    -1.773534    1.2808974 
    1600          3.2    1.5160324    2.2733748   -4.0471102   -1.7737355    1.2455426 
    1650          3.3    1.5028731    2.2536417   -4.0271156   -1.7734739    1.3371314 
    1700          3.4    1.5068133    2.2595502   -4.0331799   -1.7736297    1.3198323 
    1750          3.5    1.5151017    2.2719791   -4.0455534   -1.7735742    1.2535431 
[...]
    1850          3.7    1.5139457    2.2702457   -4.0444458   -1.7742002    1.3409905 
    1900          3.8    1.4935619     2.239679   -4.0137174   -1.7740384    1.4436883 
    1950          3.9    1.4951797    2.2421051   -4.0158823   -1.7737773    1.4160472 
    2000            4    1.5120453    2.2673959    -4.041092   -1.7736961    1.3404439 
    2050          4.1    1.5183117    2.2767927   -4.0506565   -1.7738637    1.3010359 
    2100          4.2    1.4957227    2.2429192   -4.0166532   -1.7737339    1.4644196 
    2150          4.3    1.5049623    2.2567746   -4.0303324   -1.7735577    1.4150256 
    2200          4.4     1.505816    2.2580548   -4.0320775   -1.7740227    1.3546135 
    2250          4.5    1.5211569    2.2810593   -4.0547929   -1.7737336     1.262837 
    2300          4.6    1.5251917    2.2871097   -4.0605826   -1.7734728    1.2409858 
    2350          4.7    1.5000193    2.2493623   -4.0229619   -1.7735996    1.4152138 
    2400          4.8     1.512586    2.2682068   -4.0419321   -1.7737254    1.3233347 
    2450          4.9    1.5083664    2.2618792   -4.0355634   -1.7736842    1.3375447 
    2500            5     1.510594    2.2652196   -4.0393203   -1.7741007     1.313753 
Loop time of 8.88792 on 1 procs for 2500 steps with 3375 atoms

Performance: 48605.296 tau/day, 281.281 timesteps/s
99.8% CPU use with 1 MPI tasks x no OpenMP threads

MPI task timing breakdown:
Section |  min time  |  avg time  |  max time  |%varavg| %total
---------------------------------------------------------------
Pair    | 7.8345     | 7.8345     | 7.8345     |   0.0 | 88.15
Neigh   | 0.76196    | 0.76196    | 0.76196    |   0.0 |  8.57
Comm    | 0.10294    | 0.10294    | 0.10294    |   0.0 |  1.16
Output  | 0.00078935 | 0.00078935 | 0.00078935 |   0.0 |  0.01
Modify  | 0.16265    | 0.16265    | 0.16265    |   0.0 |  1.83
Other   |            | 0.02512    |            |       |  0.28

Nlocal:        3375.00 ave        3375 max        3375 min
Histogram: 1 0 0 0 0 0 0 0 0 0
Nghost:        5443.00 ave        5443 max        5443 min
Histogram: 1 0 0 0 0 0 0 0 0 0
Neighs:        161278.0 ave      161278 max      161278 min
Histogram: 1 0 0 0 0 0 0 0 0 0

Total # of neighbors = 161278
Ave neighs/atom = 47.786074
Neighbor list builds = 125
Dangerous builds not checked
variable        diff_accum equal ${diff_accum}+${diff_integ}/(3*${loop_iterations})
variable        diff_accum equal 0.185281838131045+${diff_integ}/(3*${loop_iterations})
variable        diff_accum equal 0.185281838131045+0.63167666684095/(3*${loop_iterations})
variable        diff_accum equal 0.185281838131045+0.63167666684095/(3*25)
unfix           fixVACF
write_data      liquid.T${temp}.rho${rho}.data
write_data      liquid.T1.5.rho${rho}.data
write_data      liquid.T1.5.rho0.64.data
System init for write_data ...
print           "" append log.vacf.T${temp}.rho${rho}.txt screen no
print           "" append log.vacf.T1.5.rho${rho}.txt screen no
print           "" append log.vacf.T1.5.rho0.64.txt screen no

next            loop_counter
jump            SELF loop
clear

pair_style	lj/smooth 2.5 3.0

read_data       liquid.T${temp}.rho${rho}.data
read_data       liquid.T1.5.rho${rho}.data
read_data       liquid.T1.5.rho0.64.data
Reading data file ...
  orthogonal box = (0.0000000 0.0000000 0.0000000) to (17.405958 17.405958 17.405958)
  1 by 1 by 1 MPI processor grid
  reading atoms ...
  3375 atoms
  reading velocities ...
  3375 velocities
  read_data CPU = 0.009 seconds

neighbor	0.3 bin
neigh_modify	every 20 delay 0 check no

fix		1 all nve
timestep        0.002
thermo		50

reset_timestep  0
compute         myVACF all vacf

fix             fixVACF all vector 1 c_myVACF[4]
variable        diff_integ equal dt*trap(f_fixVACF)
variable        curVACF equal c_myVACF[4]

variable        step0 equal step
variable        step0 equal $(v_step0)
variable        step0 equal 0
variable        dtime equal (step-${step0})*dt
variable        dtime equal (step-0)*dt
fix             print_vacf all print 2 "${dtime} ${curVACF} ${diff_integ}" append log.vacf.T${temp}.rho${rho}.txt screen no
fix             print_vacf all print 2 "${dtime} ${curVACF} ${diff_integ}" append log.vacf.T1.5.rho${rho}.txt screen no
fix             print_vacf all print 2 "${dtime} ${curVACF} ${diff_integ}" append log.vacf.T1.5.rho0.64.txt screen no
thermo_style	custom step time temp ke pe etotal press

run             ${loop_length}
run             2500
Neighbor list info ...
  update every 20 steps, delay 0 steps, check no
  max neighbors/atom: 2000, page size: 100000
  master list distance cutoff = 3.3
  ghost atom cutoff = 3.3
  binsize = 1.65, bins = 11 11 11
  1 neighbor lists, perpetual/occasional/extra = 1 0 0
  (1) pair lj/smooth, perpetual
      attributes: half, newton on
      pair build: half/bin/atomonly/newton
      stencil: half/bin/3d
      bin: standard
Per MPI rank memory allocation (min/avg/max) = 3.549 | 3.549 | 3.549 Mbytes
Step Time Temp KinEng PotEng TotEng Press 
       0            0     1.510594    2.2652196   -4.0393203   -1.7741007     1.313753 
      50          0.1    1.5006906    2.2503689   -4.0245817   -1.7742128    1.3375231 
     100          0.2    1.5095535    2.2636594    -4.037471   -1.7738117    1.3040898 
     150          0.3     1.494751    2.2414622   -4.0152126   -1.7737503    1.3786114 
     200          0.4    1.4993262    2.2483229   -4.0219941   -1.7736712    1.3691796 
     250          0.5     1.490034    2.2343888   -4.0078441   -1.7734553    1.4081667 
     300          0.6    1.4907701    2.2354926   -4.0086497   -1.7731571    1.3958389 
     350          0.7    1.4946687    2.2413387   -4.0148071   -1.7734684    1.4076062 
     400          0.8     1.497445    2.2455019    -4.018657    -1.773155    1.3607705 
     450          0.9    1.5090397    2.2628888    -4.036473   -1.7735843    1.3119486 
     500            1    1.4925297    2.2381313   -4.0118407   -1.7737094    1.4106614 
     550          1.1    1.4884789    2.2320569   -4.0054754   -1.7734186    1.4388988 
     600          1.2     1.500508    2.2500951   -4.0242628   -1.7741678    1.3773003 
     650          1.3    1.4962056    2.2436434   -4.0176638   -1.7740204    1.3586211 
     700          1.4    1.5010493    2.2509068   -4.0240133   -1.7731065    1.2774736 
     750          1.5    1.4962193     2.243664    -4.017119    -1.773455    1.3027153 
     800          1.6    1.4914985    2.2365849   -4.0100869    -1.773502    1.3322016 
     850          1.7    1.4843001    2.2257905   -3.9996188   -1.7738283     1.397514 
     900          1.8    1.5108476    2.2655999   -4.0391846   -1.7735847    1.2489771 
     950          1.9    1.4916137    2.2367576   -4.0110484   -1.7742908    1.3991084 
    1000            2    1.5145962    2.2712212   -4.0453109   -1.7740898    1.3355128 
    1050          2.1    1.4880075    2.2313499   -4.0048137   -1.7734638    1.4548596 
    1100          2.2    1.5258712    2.2881287   -4.0618554   -1.7737267    1.2471959 
    1150          2.3    1.5056028     2.257735   -4.0315341   -1.7737991    1.3155165 
    1200          2.4     1.509545    2.2636466   -4.0374986    -1.773852     1.281536 
    1250          2.5    1.4928992    2.2386853   -4.0128228   -1.7741375    1.3738843 
    1300          2.6    1.5059167    2.2582057   -4.0320391   -1.7738334    1.3212522 
    1350          2.7    1.5035604    2.2546723    -4.028399   -1.7737267    1.3213215 
    1400          2.8    1.4875579    2.2306757   -4.0046192   -1.7739436    1.4115406 
    1450          2.9    1.5034111    2.2544485   -4.0283845    -1.773936    1.3571731 
    1500            3    1.5094946     2.263571   -4.0368894   -1.7733184    1.3618154 
    1550          3.1    1.5084229     2.261964   -4.0356081   -1.7736441    1.3422521 
    1600          3.2    1.5083452    2.2618474   -4.0356168   -1.7737695    1.3071128 
    1650          3.3    1.4925694    2.2381907   -4.0120263   -1.7738357    1.3752076 
    1700          3.4     1.502766    2.2534812    -4.027392   -1.7739108    1.3123206 
    1750          3.5    1.5059328    2.2582299   -4.0322208   -1.7739909    1.2864634 
    1800          3.6    1.5059762    2.2582949   -4.0321103   -1.7738154    1.3105047 
    1850          3.7    1.5085224    2.2621131    -4.036026   -1.7739129    1.3390624 
    1900          3.8    1.5173769    2.2753909    -4.049157   -1.7737661    1.3165987 
    1950          3.9    1.5009163    2.2507073   -4.0242962   -1.7735889    1.3959445 
    2000            4    1.4945236    2.2411212   -4.0148425   -1.7737213    1.3866764 
    2050          4.1    1.4974568    2.2455197   -4.0200468   -1.7745271    1.3775444 
    2100          4.2    1.5155028    2.2725807   -4.0470177   -1.7744371    1.2968383 
    2150          4.3     1.512554    2.2681588   -4.0419014   -1.7737426     1.284303 
    2200          4.4    1.5044243    2.2559678   -4.0294711   -1.7735033    1.3338381 
    2250          4.5    1.4940967    2.2404811   -4.0140551   -1.7735741    1.3873491 
    2300          4.6    1.4971573    2.2450706   -4.0186087   -1.7735382    1.3676544 
    2350          4.7    1.5131576    2.2690639   -4.0424769    -1.773413    1.2806476 
    2400          4.8    1.4966175    2.2442611    -4.017361   -1.7730999    1.3567282 
    2450          4.9    1.5120086    2.2673408   -4.0409748    -1.773634     1.308555 
    2500            5    1.4944386    2.2409937   -4.0145652   -1.7735715    1.3865347 
Loop time of 8.81178 on 1 procs for 2500 steps with 3375 atoms

Performance: 49025.287 tau/day, 283.711 timesteps/s
99.7% CPU use with 1 MPI tasks x no OpenMP threads

MPI task timing breakdown:
Section |  min time  |  avg time  |  max time  |%varavg| %total
---------------------------------------------------------------
Pair    | 7.7634     | 7.7634     | 7.7634     |   0.0 | 88.10
Neigh   | 0.75457    | 0.75457    | 0.75457    |   0.0 |  8.56
Comm    | 0.10223    | 0.10223    | 0.10223    |   0.0 |  1.16
Output  | 0.00079896 | 0.00079896 | 0.00079896 |   0.0 |  0.01
Modify  | 0.16564    | 0.16564    | 0.16564    |   0.0 |  1.88
Other   |            | 0.02516    |            |       |  0.29

Nlocal:        3375.00 ave        3375 max        3375 min
Histogram: 1 0 0 0 0 0 0 0 0 0
Nghost:        5480.00 ave        5480 max        5480 min
Histogram: 1 0 0 0 0 0 0 0 0 0
Neighs:        161367.0 ave      161367 max      161367 min
Histogram: 1 0 0 0 0 0 0 0 0 0

Total # of neighbors = 161367
Ave neighs/atom = 47.812444
Neighbor list builds = 125
Dangerous builds not checked
variable        diff_accum equal ${diff_accum}+${diff_integ}/(3*${loop_iterations})
variable        diff_accum equal 0.193704193688924+${diff_integ}/(3*${loop_iterations})
variable        diff_accum equal 0.193704193688924+0.564494185285669/(3*${loop_iterations})
variable        diff_accum equal 0.193704193688924+0.564494185285669/(3*25)
unfix           fixVACF
write_data      liquid.T${temp}.rho${rho}.data
write_data      liquid.T1.5.rho${rho}.data
write_data      liquid.T1.5.rho0.64.data
System init for write_data ...
print           "" append log.vacf.T${temp}.rho${rho}.txt screen no
print           "" append log.vacf.T1.5.rho${rho}.txt screen no
print           "" append log.vacf.T1.5.rho0.64.txt screen no

next            loop_counter
jump            SELF loop
clear

pair_style	lj/smooth 2.5 3.0

read_data       liquid.T${temp}.rho${rho}.data
read_data       liquid.T1.5.rho${rho}.data
read_data       liquid.T1.5.rho0.64.data
Reading data file ...
  orthogonal box = (0.0000000 0.0000000 0.0000000) to (17.405958 17.405958 17.405958)
  1 by 1 by 1 MPI processor grid
  reading atoms ...
  3375 atoms
  reading velocities ...
  3375 velocities
  read_data CPU = 0.009 seconds

neighbor	0.3 bin
neigh_modify	every 20 delay 0 check no

fix		1 all nve
timestep        0.002
thermo		50

reset_timestep  0
compute         myVACF all vacf

fix             fixVACF all vector 1 c_myVACF[4]
variable        diff_integ equal dt*trap(f_fixVACF)
variable        curVACF equal c_myVACF[4]

variable        step0 equal step
variable        step0 equal $(v_step0)
variable        step0 equal 0
variable        dtime equal (step-${step0})*dt
variable        dtime equal (step-0)*dt
fix             print_vacf all print 2 "${dtime} ${curVACF} ${diff_integ}" append log.vacf.T${temp}.rho${rho}.txt screen no
fix             print_vacf all print 2 "${dtime} ${curVACF} ${diff_integ}" append log.vacf.T1.5.rho${rho}.txt screen no
fix             print_vacf all print 2 "${dtime} ${curVACF} ${diff_integ}" append log.vacf.T1.5.rho0.64.txt screen no
thermo_style	custom step time temp ke pe etotal press

run             ${loop_length}
run             2500
Neighbor list info ...
  update every 20 steps, delay 0 steps, check no
  max neighbors/atom: 2000, page size: 100000
  master list distance cutoff = 3.3
  ghost atom cutoff = 3.3
  binsize = 1.65, bins = 11 11 11
  1 neighbor lists, perpetual/occasional/extra = 1 0 0
  (1) pair lj/smooth, perpetual
      attributes: half, newton on
      pair build: half/bin/atomonly/newton
      stencil: half/bin/3d
      bin: standard
Per MPI rank memory allocation (min/avg/max) = 3.553 | 3.553 | 3.553 Mbytes
Step Time Temp KinEng PotEng TotEng Press 
       0            0    1.4944386    2.2409937   -4.0145652   -1.7735715    1.3865347 
      50          0.1    1.4946745    2.2413475   -4.0148338   -1.7734863    1.4016846 
     100          0.2    1.5134817    2.2695499   -4.0431245   -1.7735746    1.3013289 
     150          0.3    1.5131989    2.2691258   -4.0424939    -1.773368    1.3079429 
     200          0.4    1.4954947    2.2425774    -4.016273   -1.7736956    1.4395754 
     250          0.5     1.496757    2.2444703   -4.0182612   -1.7737909    1.4382814 
     300          0.6    1.5011708     2.251089   -4.0246613   -1.7735723    1.3922897 
     350          0.7    1.4998325    2.2490822    -4.022869   -1.7737869    1.3633946 
     400          0.8     1.507665    2.2608275   -4.0347019   -1.7738744    1.3265466 
     450          0.9    1.4961131    2.2435047   -4.0168285   -1.7733239    1.3653313 
     500            1    1.5045963    2.2562258   -4.0296119   -1.7733861    1.2893708 
     550          1.1    1.4979678    2.2462859   -4.0199831   -1.7736972    1.3373941 
     600          1.2    1.5189191    2.2777035   -4.0515392   -1.7738357     1.236791 
     650          1.3    1.4893435    2.2333534   -4.0072594    -1.773906     1.388685 
     700          1.4    1.4967588    2.2444729   -4.0176437   -1.7731708    1.3860527 
     750          1.5     1.492628    2.2382786   -4.0109637   -1.7726851    1.3992557 
     800          1.6    1.4975483    2.2456569   -4.0192596   -1.7736027    1.3662716 
     850          1.7    1.4881903     2.231624   -4.0051078   -1.7734838    1.4148058 
     900          1.8    1.5100223    2.2643623   -4.0377601   -1.7733979    1.3136636 
     950          1.9     1.505384    2.2574069   -4.0314653   -1.7740584    1.3818721 
    1000            2    1.5055447    2.2576479   -4.0313644   -1.7737166    1.3837338 
    1050          2.1    1.5162592    2.2737149   -4.0475797   -1.7738648    1.2787013 
    1100          2.2    1.5139901    2.2703122   -4.0440634   -1.7737512    1.2836901 
    1150          2.3    1.4889817    2.2328107   -4.0064941   -1.7736833     1.420679 
    1200          2.4    1.5109485    2.2657511   -4.0396467   -1.7738956    1.3232127 
    1250          2.5    1.5096087    2.2637422   -4.0379277   -1.7741856    1.3433418 
    1300          2.6    1.4982869    2.2467644   -4.0202816   -1.7735172    1.3328896 
    1350          2.7    1.5026454    2.2533003   -4.0270181   -1.7737179    1.3186505 
    1400          2.8    1.5135858     2.269706   -4.0436161     -1.77391    1.2553211 
    1450          2.9    1.4987666    2.2474838   -4.0213827   -1.7738988    1.3278496 
    1500            3    1.4968756    2.2446482   -4.0184795   -1.7738313    1.3372335 
    1550          3.1    1.5102055     2.264637   -4.0385428   -1.7739058    1.2775532 
    1600          3.2    1.5090804    2.2629499   -4.0367247   -1.7737748    1.3028803 
    1650          3.3    1.5079792    2.2612985   -4.0349707   -1.7736722    1.3697942 
    1700          3.4    1.5067684    2.2594829   -4.0334009    -1.773918    1.3903661 
    1750          3.5    1.5187791    2.2774936   -4.0511961   -1.7737025    1.2875932 
    1800          3.6     1.504661    2.2563227    -4.029784   -1.7734613    1.3766568 
    1850          3.7    1.4943542    2.2408672   -4.0141888   -1.7733215    1.3883284 
    1900          3.8    1.5083776     2.261896   -4.0354148   -1.7735188    1.3033165 
    1950          3.9    1.5251294    2.2870162   -4.0608025   -1.7737863    1.2144467 
    2000            4    1.5137341    2.2699284   -4.0438127   -1.7738843    1.2563489 
    2050          4.1     1.491668     2.236839   -4.0108487   -1.7740097    1.3971216 
    2100          4.2    1.4997503    2.2489589   -4.0229771   -1.7740182    1.3800664 
    2150          4.3    1.4807393    2.2204509   -3.9941604   -1.7737095    1.4772902 
    2200          4.4    1.5057266    2.2579208   -4.0315379   -1.7736171    1.3812398 
    2250          4.5    1.5003652     2.249881   -4.0236803   -1.7737994    1.3920225 
    2300          4.6    1.5006175    2.2502593   -4.0238551   -1.7735958    1.3825567 
    2350          4.7    1.5081649     2.261577    -4.034643    -1.773066    1.3437685 
    2400          4.8    1.5112545    2.2662101   -4.0397493   -1.7735391    1.3370751 
    2450          4.9    1.5095579    2.2636659   -4.0377154   -1.7740495    1.3338962 
    2500            5    1.5090167    2.2628543   -4.0364114    -1.773557     1.328756 
Loop time of 8.79682 on 1 procs for 2500 steps with 3375 atoms

Performance: 49108.632 tau/day, 284.193 timesteps/s
99.7% CPU use with 1 MPI tasks x no OpenMP threads

MPI task timing breakdown:
Section |  min time  |  avg time  |  max time  |%varavg| %total
---------------------------------------------------------------
Pair    | 7.7453     | 7.7453     | 7.7453     |   0.0 | 88.05
Neigh   | 0.75976    | 0.75976    | 0.75976    |   0.0 |  8.64
Comm    | 0.10254    | 0.10254    | 0.10254    |   0.0 |  1.17
Output  | 0.0007959  | 0.0007959  | 0.0007959  |   0.0 |  0.01
Modify  | 0.16319    | 0.16319    | 0.16319    |   0.0 |  1.86
Other   |            | 0.02523    |            |       |  0.29

Nlocal:        3375.00 ave        3375 max        3375 min
Histogram: 1 0 0 0 0 0 0 0 0 0
Nghost:        5556.00 ave        5556 max        5556 min
Histogram: 1 0 0 0 0 0 0 0 0 0
Neighs:        161351.0 ave      161351 max      161351 min
Histogram: 1 0 0 0 0 0 0 0 0 0

Total # of neighbors = 161351
Ave neighs/atom = 47.807704
Neighbor list builds = 125
Dangerous builds not checked
variable        diff_accum equal ${diff_accum}+${diff_integ}/(3*${loop_iterations})
variable        diff_accum equal 0.201230782826066+${diff_integ}/(3*${loop_iterations})
variable        diff_accum equal 0.201230782826066+0.566169357261469/(3*${loop_iterations})
variable        diff_accum equal 0.201230782826066+0.566169357261469/(3*25)
unfix           fixVACF
write_data      liquid.T${temp}.rho${rho}.data
write_data      liquid.T1.5.rho${rho}.data
write_data      liquid.T1.5.rho0.64.data
System init for write_data ...
print           "" append log.vacf.T${temp}.rho${rho}.txt screen no
print           "" append log.vacf.T1.5.rho${rho}.txt screen no
print           "" append log.vacf.T1.5.rho0.64.txt screen no

next            loop_counter
jump            SELF loop

print           "Diffusivity estimate (GK): ${diff_accum}" append log.vacf.T${temp}.rho${rho}.txt
print           "Diffusivity estimate (GK): ${diff_accum}" append log.vacf.T1.5.rho${rho}.txt
print           "Diffusivity estimate (GK): ${diff_accum}" append log.vacf.T1.5.rho0.64.txt
Diffusivity estimate (GK): 0.208779707589552
Total wall time: 0:03:42
