units		lj
atom_style	atomic

timestep	0.002

lattice		sc ${rho} origin 0.5 0.5 0.5
lattice		sc 0.64 origin 0.5 0.5 0.5
Lattice spacing in x,y,z = 1.1603972 1.1603972 1.1603972
region		box block 0 ${nlatt} 0 ${nlatt} 0 ${nlatt}
region		box block 0 15 0 ${nlatt} 0 ${nlatt}
region		box block 0 15 0 15 0 ${nlatt}
region		box block 0 15 0 15 0 15
create_box	1 box
Created orthogonal box = (0.0000000 0.0000000 0.0000000) to (17.405958 17.405958 17.405958)
  1 by 1 by 1 MPI processor grid
create_atoms	1 box
Created 3375 atoms
  using lattice units in orthogonal box = (0.0000000 0.0000000 0.0000000) to (17.405958 17.405958 17.405958)
  create_atoms CPU = 0.001 seconds
mass		1 1.0

velocity	all create ${temp} 87287 mom yes
velocity	all create 1.4 87287 mom yes

pair_style	lj/smooth 2.5 3.0
pair_coeff	1 1 1.0 1.0

neighbor	0.3 bin
neigh_modify	every 20 delay 0 check no

fix		1 all nve

thermo		50
run		1000
Neighbor list info ...
  update every 20 steps, delay 0 steps, check no
  max neighbors/atom: 2000, page size: 100000
  master list distance cutoff = 3.3
  ghost atom cutoff = 3.3
  binsize = 1.65, bins = 11 11 11
  1 neighbor lists, perpetual/occasional/extra = 1 0 0
  (1) pair lj/smooth, perpetual
      attributes: half, newton on
      pair build: half/bin/atomonly/newton
      stencil: half/bin/3d
      bin: standard
Per MPI rank memory allocation (min/avg/max) = 3.194 | 3.194 | 3.194 Mbytes
Step Temp E_pair E_mol TotEng Press 
       0          1.4   -4.6500429            0   -2.5506651   -2.2817108 
      50   0.87442408   -3.8459386            0   -2.5346912   0.69413179 
     100    1.0962001   -4.1650236            0   -2.5212106   0.10436057 
     150    1.1279083   -4.2058962            0   -2.5145351   0.26375376 
     200    1.1266214   -4.2021686            0   -2.5127372   0.40182393 
     250    1.1244498    -4.198622            0    -2.512447   0.48505996 
     300    1.1400999   -4.2214325            0   -2.5117894   0.41616189 
     350    1.1458285   -4.2299655            0    -2.511732   0.41991637 
     400    1.1425238    -4.225183            0   -2.5119052   0.45072229 
     450    1.1332367   -4.2115686            0   -2.5122173    0.4884554 
     500    1.1344842   -4.2132192            0   -2.5119971   0.44324404 
     550    1.1422087   -4.2249396            0   -2.5121343   0.41395509 
     600    1.1396771   -4.2212867            0   -2.5122775   0.45499923 
     650    1.1510465   -4.2385689            0   -2.5125108   0.41818227 
     700    1.1274142   -4.2029096            0   -2.5122893    0.5500422 
     750    1.1473148   -4.2325171            0   -2.5120548    0.4631877 
     800    1.1456134    -4.230183            0   -2.5122721   0.43320476 
     850    1.1374122   -4.2179232            0   -2.5123104   0.46917315 
     900    1.1378457   -4.2187656            0   -2.5125028   0.46743075 
     950    1.1361487   -4.2157928            0   -2.5120748   0.48059955 
    1000    1.1507529   -4.2376528            0   -2.5120349    0.4353607 
Loop time of 3.47713 on 1 procs for 1000 steps with 3375 atoms

Performance: 49696.209 tau/day, 287.594 timesteps/s
99.8% CPU use with 1 MPI tasks x no OpenMP threads

MPI task timing breakdown:
Section |  min time  |  avg time  |  max time  |%varavg| %total
---------------------------------------------------------------
Pair    | 3.0908     | 3.0908     | 3.0908     |   0.0 | 88.89
Neigh   | 0.29874    | 0.29874    | 0.29874    |   0.0 |  8.59
Comm    | 0.04082    | 0.04082    | 0.04082    |   0.0 |  1.17
Output  | 0.00034961 | 0.00034961 | 0.00034961 |   0.0 |  0.01
Modify  | 0.036443   | 0.036443   | 0.036443   |   0.0 |  1.05
Other   |            | 0.009987   |            |       |  0.29

Nlocal:        3375.00 ave        3375 max        3375 min
Histogram: 1 0 0 0 0 0 0 0 0 0
Nghost:        5405.00 ave        5405 max        5405 min
Histogram: 1 0 0 0 0 0 0 0 0 0
Neighs:        161734.0 ave      161734 max      161734 min
Histogram: 1 0 0 0 0 0 0 0 0 0

Total # of neighbors = 161734
Ave neighs/atom = 47.921185
Neighbor list builds = 50
Dangerous builds not checked

fix		2 all langevin ${temp} ${temp} 0.5 7162534 zero yes
fix		2 all langevin 1.4 ${temp} 0.5 7162534 zero yes
fix		2 all langevin 1.4 1.4 0.5 7162534 zero yes

run		2000
Per MPI rank memory allocation (min/avg/max) = 3.194 | 3.194 | 3.194 Mbytes
Step Temp E_pair E_mol TotEng Press 
    1000    1.1507529   -4.2376528            0   -2.5120349    0.4353607 
    1050    1.2283887    -4.233896            0   -2.3918589   0.50822876 
    1100    1.2589797   -4.2017914            0   -2.3138813   0.65338059 
    1150    1.2953486   -4.1777463            0   -2.2352991    0.7637588 
    1200     1.323474   -4.1522992            0   -2.1676764   0.88608656 
    1250    1.3378086   -4.0978297            0   -2.0917113    1.0699786 
    1300    1.3540681   -4.0837992            0   -2.0532989    1.1225625 
    1350    1.3657708    -4.084214            0   -2.0361648     1.120036 
    1400    1.3880508   -4.1005676            0   -2.0191084    1.0567669 
    1450    1.3741511   -4.0731167            0   -2.0125007    1.1306907 
    1500    1.3899786   -4.0943796            0   -2.0100296    1.0400132 
    1550    1.4158915   -4.1167963            0   -1.9935884   0.98599436 
    1600    1.3930495   -4.0926377            0   -2.0036826    1.0767315 
    1650    1.4180316   -4.0880917            0   -1.9616746    1.1359053 
    1700    1.4062789   -4.0727997            0   -1.9640064    1.1831289 
    1750    1.4000977   -4.0939348            0   -1.9944105    1.0769525 
    1800    1.3958159   -4.0993124            0    -2.006209    1.0608762 
    1850    1.3816782   -4.0700208            0   -1.9981176    1.1426721 
    1900    1.3749852   -4.0513044            0   -1.9894378    1.2024199 
    1950    1.3944427   -4.0726523            0   -1.9816079    1.1049614 
    2000    1.4189701   -4.0841804            0   -1.9563559    1.0296502 
    2050    1.4065362   -4.0805249            0   -1.9713457    1.0720395 
    2100    1.3932918   -4.0765073            0   -1.9871889    1.0980356 
    2150    1.4106088   -4.1001076            0   -1.9848212    1.0229058 
    2200    1.3777901   -4.0843298            0    -2.018257    1.0868841 
    2250    1.3984933   -4.1111862            0   -2.0140678    1.0248457 
    2300    1.3853709   -4.0720338            0   -1.9945932    1.1580956 
    2350    1.3864835   -4.0853884            0   -2.0062793    1.1119183 
    2400    1.3728077   -4.0640297            0   -2.0054282    1.2014397 
    2450    1.3788622   -4.0607038            0   -1.9930234    1.1916073 
    2500    1.3894911   -4.0632339            0   -1.9796148    1.1213359 
    2550    1.3989617   -4.0928615            0   -1.9950407    1.0214409 
    2600    1.4077643   -4.1139276            0   -2.0029069   0.93437352 
    2650    1.3762626    -4.076274            0   -2.0124918    1.0700839 
    2700    1.4134779   -4.0593595            0   -1.9397708    1.1273751 
    2750    1.4177219   -4.0531601            0   -1.9272074    1.1484119 
    2800    1.4284784   -4.0900975            0   -1.9480148    1.0402258 
    2850    1.3878408   -4.0671097            0   -1.9859653    1.1020921 
    2900    1.3715972   -4.0909405            0   -2.0341544    1.0404393 
    2950    1.3673141   -4.0594751            0   -2.0091117    1.1360847 
    3000    1.3721613   -4.0700436            0   -2.0124114    1.0959002 
Loop time of 7.34017 on 1 procs for 2000 steps with 3375 atoms

Performance: 47083.379 tau/day, 272.473 timesteps/s
99.8% CPU use with 1 MPI tasks x no OpenMP threads

MPI task timing breakdown:
Section |  min time  |  avg time  |  max time  |%varavg| %total
---------------------------------------------------------------
Pair    | 6.2622     | 6.2622     | 6.2622     |   0.0 | 85.31
Neigh   | 0.6008     | 0.6008     | 0.6008     |   0.0 |  8.19
Comm    | 0.082602   | 0.082602   | 0.082602   |   0.0 |  1.13
Output  | 0.00063254 | 0.00063254 | 0.00063254 |   0.0 |  0.01
Modify  | 0.37411    | 0.37411    | 0.37411    |   0.0 |  5.10
Other   |            | 0.01985    |            |       |  0.27

Nlocal:        3375.00 ave        3375 max        3375 min
Histogram: 1 0 0 0 0 0 0 0 0 0
Nghost:        5415.00 ave        5415 max        5415 min
Histogram: 1 0 0 0 0 0 0 0 0 0
Neighs:        161394.0 ave      161394 max      161394 min
Histogram: 1 0 0 0 0 0 0 0 0 0

Total # of neighbors = 161394
Ave neighs/atom = 47.820444
Neighbor list builds = 100
Dangerous builds not checked

write_data      liquid.T${temp}.rho${rho}.data
write_data      liquid.T1.4.rho${rho}.data
write_data      liquid.T1.4.rho0.64.data
System init for write_data ...
Total wall time: 0:00:10
