shell           rm log.vacf.T${temp}.rho${rho}.txt
shell           rm log.vacf.T1.4.rho${rho}.txt
shell           rm log.vacf.T1.4.rho0.64.txt
WARNING: Shell command 'rm' failed with error 'No such file or directory' (../input.cpp:1234)
units		lj
atom_style	atomic

variable        loop_counter loop ${loop_iterations}
variable        loop_counter loop 25
variable        diff_accum equal 0

label           loop
clear

pair_style	lj/smooth 2.5 3.0

read_data       liquid.T${temp}.rho${rho}.data
read_data       liquid.T1.4.rho${rho}.data
read_data       liquid.T1.4.rho0.64.data
Reading data file ...
  orthogonal box = (0.0000000 0.0000000 0.0000000) to (17.405958 17.405958 17.405958)
  1 by 1 by 1 MPI processor grid
  reading atoms ...
  3375 atoms
  reading velocities ...
  3375 velocities
  read_data CPU = 0.010 seconds

neighbor	0.3 bin
neigh_modify	every 20 delay 0 check no

fix		1 all nve
timestep        0.002
thermo		50

reset_timestep  0
compute         myVACF all vacf

fix             fixVACF all vector 1 c_myVACF[4]
variable        diff_integ equal dt*trap(f_fixVACF)
variable        curVACF equal c_myVACF[4]

variable        step0 equal step
variable        step0 equal $(v_step0)
variable        step0 equal 0
variable        dtime equal (step-${step0})*dt
variable        dtime equal (step-0)*dt
fix             print_vacf all print 2 "${dtime} ${curVACF} ${diff_integ}" append log.vacf.T${temp}.rho${rho}.txt screen no
fix             print_vacf all print 2 "${dtime} ${curVACF} ${diff_integ}" append log.vacf.T1.4.rho${rho}.txt screen no
fix             print_vacf all print 2 "${dtime} ${curVACF} ${diff_integ}" append log.vacf.T1.4.rho0.64.txt screen no
thermo_style	custom step time temp ke pe etotal press

run             ${loop_length}
run             2500
Neighbor list info ...
  update every 20 steps, delay 0 steps, check no
  max neighbors/atom: 2000, page size: 100000
  master list distance cutoff = 3.3
  ghost atom cutoff = 3.3
  binsize = 1.65, bins = 11 11 11
  1 neighbor lists, perpetual/occasional/extra = 1 0 0
  (1) pair lj/smooth, perpetual
      attributes: half, newton on
      pair build: half/bin/atomonly/newton
      stencil: half/bin/3d
      bin: standard
Per MPI rank memory allocation (min/avg/max) = 3.552 | 3.552 | 3.552 Mbytes
Step Time Temp KinEng PotEng TotEng Press 
       0            0    1.3723796    2.0579595   -4.0706472   -2.0126877    1.0769056 
      50          0.1    1.3684605    2.0520825   -4.0648299   -2.0127474    1.0925568 
     100          0.2    1.3872815    2.0803056   -4.0931163   -2.0128106    1.0196122 
     150          0.3    1.3819064    2.0722454    -4.084981   -2.0127355    1.0537587 
     200          0.4    1.3886851    2.0824105   -4.0950773   -2.0126668    1.0208779 
     250          0.5    1.3647062    2.0464528   -4.0592856   -2.0128327    1.1390918 
     300          0.6    1.3888987    2.0827307   -4.0955737   -2.0128429    1.0606552 
     350          0.7    1.3732999    2.0593396   -4.0719649   -2.0126254     1.135368 
     400          0.8    1.4043183    2.1058533   -4.1186688   -2.0128155   0.98688324 
     450          0.9    1.3945628    2.0912243    -4.104023   -2.0127987    1.0291903 
     500            1    1.4000375     2.099434   -4.1120608   -2.0126268   0.97772316 
     550          1.1    1.3960263     2.093419    -4.106033    -2.012614   0.95189386 
     600          1.2    1.3755088    2.0626518   -4.0753326   -2.0126808    1.0620672 
     650          1.3    1.3677341    2.0509932   -4.0638242    -2.012831    1.0776516 
     700          1.4    1.3815261    2.0716752   -4.0845132    -2.012838   0.99079359 
     750          1.5     1.371906    2.0572493   -4.0701518   -2.0129025    1.0799939 
     800          1.6    1.3660107     2.048409   -4.0608826   -2.0124736    1.1311599 
     850          1.7    1.3649442    2.0468096   -4.0592878   -2.0124782    1.1260972 
     900          1.8    1.3910224    2.0859153   -4.0987605   -2.0128452   0.98155483 
     950          1.9    1.3857394    2.0779932   -4.0908254   -2.0128321    1.0095126 
    1000            2     1.374987    2.0618693   -4.0748915   -2.0130221    1.0805056 
    1050          2.1     1.379843    2.0691512   -4.0823956   -2.0132444    1.1089532 
    1100          2.2    1.3880946    2.0815249   -4.0943887   -2.0128638    1.0617785 
    1150          2.3    1.3843921    2.0759729   -4.0890187   -2.0130458    1.0734379 
    1200          2.4    1.3636731    2.0449036   -4.0579354   -2.0130318    1.1931665 
    1250          2.5    1.3922531    2.0877609   -4.1002213   -2.0124604    1.0398675 
    1300          2.6    1.3927198    2.0884607   -4.1013831   -2.0129224    1.0291414 
    1350          2.7    1.3836067    2.0747952   -4.0874901   -2.0126949    1.0665221 
    1400          2.8    1.3799739    2.0693475   -4.0817867   -2.0124391    1.0656321 
    1450          2.9    1.3789475    2.0678084   -4.0800401   -2.0122317    1.0290848 
    1500            3    1.3873476    2.0804049   -4.0929221   -2.0125172    1.0197053 
    1550          3.1    1.3824452    2.0730533   -4.0855909   -2.0125376    1.0869468 
    1600          3.2     1.397511    2.0956454   -4.1088135   -2.0131681   0.99261793 
    1650          3.3    1.3837601    2.0750252   -4.0880431   -2.0130179    1.0425629 
    1700          3.4    1.3863118    2.0788515   -4.0919807   -2.0131292    1.0151317 
    1750          3.5    1.3624343    2.0430459   -4.0563291   -2.0132832    1.1457718 
    1800          3.6    1.3810422    2.0709495   -4.0835975   -2.0126479    1.0781387 
    1850          3.7    1.3865073    2.0791448   -4.0918207   -2.0126759    1.0745482 
    1900          3.8    1.3902872    2.0848129   -4.0972905   -2.0124776    1.0382273 
    1950          3.9    1.3815379    2.0716928   -4.0848484   -2.0131556    1.0950986 
    2000            4    1.3649814    2.0468654   -4.0600205   -2.0131552    1.1685327 
    2050          4.1    1.3764868    2.0641185   -4.0769194    -2.012801     1.079556 
    2100          4.2    1.3870203     2.079914   -4.0928764   -2.0129624    1.0051234 
    2150          4.3    1.3663598    2.0489324   -4.0618935   -2.0129611    1.1224882 
    2200          4.4    1.3771924    2.0651764   -4.0780935    -2.012917    1.0805888 
    2250          4.5    1.3788338    2.0676379   -4.0803377   -2.0126998    1.0873457 
    2300          4.6    1.3862471    2.0787545   -4.0915204   -2.0127659    1.0116119 
    2350          4.7    1.3969434    2.0947943   -4.1081498   -2.0133556   0.97015226 
    2400          4.8    1.3951576    2.0921163    -4.105043   -2.0129267   0.99449414 
    2450          4.9    1.3865735    2.0792439   -4.0917937   -2.0125498    1.0536744 
    2500            5    1.3784764    2.0671019   -4.0797374   -2.0126356    1.0764664 
Loop time of 8.87688 on 1 procs for 2500 steps with 3375 atoms

Performance: 48665.750 tau/day, 281.630 timesteps/s
99.8% CPU use with 1 MPI tasks x no OpenMP threads

MPI task timing breakdown:
Section |  min time  |  avg time  |  max time  |%varavg| %total
---------------------------------------------------------------
Pair    | 7.818      | 7.818      | 7.818      |   0.0 | 88.07
Neigh   | 0.75998    | 0.75998    | 0.75998    |   0.0 |  8.56
Comm    | 0.10541    | 0.10541    | 0.10541    |   0.0 |  1.19
Output  | 0.00082809 | 0.00082809 | 0.00082809 |   0.0 |  0.01
Modify  | 0.16723    | 0.16723    | 0.16723    |   0.0 |  1.88
Other   |            | 0.02541    |            |       |  0.29

Nlocal:        3375.00 ave        3375 max        3375 min
Histogram: 1 0 0 0 0 0 0 0 0 0
Nghost:        5470.00 ave        5470 max        5470 min
Histogram: 1 0 0 0 0 0 0 0 0 0
Neighs:        161378.0 ave      161378 max      161378 min
Histogram: 1 0 0 0 0 0 0 0 0 0

Total # of neighbors = 161378
Ave neighs/atom = 47.815704
Neighbor list builds = 125
Dangerous builds not checked
variable        diff_accum equal ${diff_accum}+${diff_integ}/(3*${loop_iterations})
variable        diff_accum equal 0+${diff_integ}/(3*${loop_iterations})
variable        diff_accum equal 0+0.59407339590227/(3*${loop_iterations})
variable        diff_accum equal 0+0.59407339590227/(3*25)
unfix           fixVACF
write_data      liquid.T${temp}.rho${rho}.data
write_data      liquid.T1.4.rho${rho}.data
write_data      liquid.T1.4.rho0.64.data
System init for write_data ...
print           "" append log.vacf.T${temp}.rho${rho}.txt screen no
print           "" append log.vacf.T1.4.rho${rho}.txt screen no
print           "" append log.vacf.T1.4.rho0.64.txt screen no

next            loop_counter
jump            SELF loop
clear

pair_style	lj/smooth 2.5 3.0

read_data       liquid.T${temp}.rho${rho}.data
read_data       liquid.T1.4.rho${rho}.data
read_data       liquid.T1.4.rho0.64.data
Reading data file ...
  orthogonal box = (0.0000000 0.0000000 0.0000000) to (17.405958 17.405958 17.405958)
  1 by 1 by 1 MPI processor grid
  reading atoms ...
  3375 atoms
  reading velocities ...
  3375 velocities
  read_data CPU = 0.009 seconds

neighbor	0.3 bin
neigh_modify	every 20 delay 0 check no

fix		1 all nve
timestep        0.002
thermo		50

reset_timestep  0
compute         myVACF all vacf

fix             fixVACF all vector 1 c_myVACF[4]
variable        diff_integ equal dt*trap(f_fixVACF)
variable        curVACF equal c_myVACF[4]

variable        step0 equal step
variable        step0 equal $(v_step0)
variable        step0 equal 0
variable        dtime equal (step-${step0})*dt
variable        dtime equal (step-0)*dt
fix             print_vacf all print 2 "${dtime} ${curVACF} ${diff_integ}" append log.vacf.T${temp}.rho${rho}.txt screen no
fix             print_vacf all print 2 "${dtime} ${curVACF} ${diff_integ}" append log.vacf.T1.4.rho${rho}.txt screen no
fix             print_vacf all print 2 "${dtime} ${curVACF} ${diff_integ}" append log.vacf.T1.4.rho0.64.txt screen no
thermo_style	custom step time temp ke pe etotal press

run             ${loop_length}
run             2500
Neighbor list info ...
  update every 20 steps, delay 0 steps, check no
  max neighbors/atom: 2000, page size: 100000
  master list distance cutoff = 3.3
  ghost atom cutoff = 3.3
  binsize = 1.65, bins = 11 11 11
  1 neighbor lists, perpetual/occasional/extra = 1 0 0
  (1) pair lj/smooth, perpetual
      attributes: half, newton on
      pair build: half/bin/atomonly/newton
      stencil: half/bin/3d
      bin: standard
Per MPI rank memory allocation (min/avg/max) = 3.551 | 3.551 | 3.551 Mbytes
Step Time Temp KinEng PotEng TotEng Press 
       0            0    1.3784764    2.0671019   -4.0797374   -2.0126356    1.0764664 
      50          0.1    1.3760505    2.0634642   -4.0761442     -2.01268    1.0574501 
     100          0.2     1.389054    2.0829636   -4.0955071   -2.0125435    1.0203948 
     150          0.3    1.3856184    2.0778118   -4.0906407   -2.0128288     1.049641 
     200          0.4    1.3910568    2.0859669   -4.0984717   -2.0125048    1.0182789 
     250          0.5    1.3761157    2.0635619   -4.0759768   -2.0124149    1.0647702 
     300          0.6    1.3682263    2.0517313   -4.0644625   -2.0127312     1.100219 
     350          0.7    1.3748377    2.0616455   -4.0740989   -2.0124535    1.0791482 
     400          0.8    1.3756601    2.0628787    -4.075153   -2.0122743    1.1166462 
     450          0.9    1.3807247    2.0704734   -4.0833221   -2.0128487    1.1033581 
     500            1    1.3783365    2.0668921   -4.0795565   -2.0126644    1.1301983 
     550          1.1    1.3950508    2.0919562   -4.1048883   -2.0129322    1.0348247 
     600          1.2    1.3834401    2.0745452   -4.0873662    -2.012821     1.101985 
     650          1.3    1.3777212    2.0659694   -4.0786468   -2.0126773    1.1183439 
     700          1.4    1.3786041    2.0672934   -4.0805343   -2.0132409    1.1027746 
     750          1.5     1.376083     2.063513   -4.0767463   -2.0132333    1.1259406 
     800          1.6    1.3782046    2.0666944   -4.0795123   -2.0128179    1.1786589 
     850          1.7    1.3926092    2.0882948   -4.1011921   -2.0128973    1.0844121 
     900          1.8    1.3812162    2.0712104   -4.0844337   -2.0132234    1.1195211 
     950          1.9    1.3801172    2.0695624   -4.0826859   -2.0131235    1.1163712 
    1000            2    1.3937913    2.0900674   -4.1034807   -2.0134132    1.0421396 
    1050          2.1    1.3910112    2.0858985   -4.0987435    -2.012845    1.0473352 
    1100          2.2    1.3828739    2.0736962   -4.0865139   -2.0128178    1.0828309 
    1150          2.3    1.3816718    2.0718937   -4.0847682   -2.0128745    1.0609189 
    1200          2.4    1.3859551    2.0783167   -4.0915077    -2.013191    1.0500206 
    1250          2.5    1.3861672    2.0786348   -4.0915136   -2.0128788    1.0429485 
    1300          2.6    1.3902967    2.0848271   -4.0973261   -2.0124989   0.98987258 
    1350          2.7     1.387844    2.0811492   -4.0936888   -2.0125396   0.99336774 
    1400          2.8    1.3710627    2.0559846   -4.0688549   -2.0128703    1.0499045 
    1450          2.9    1.3698957    2.0542347    -4.067358   -2.0131233    1.0591968 
    1500            3    1.3803578    2.0699232   -4.0829268   -2.0130036     1.026504 
    1550          3.1    1.3682679    2.0517937   -4.0644276   -2.0126339    1.1216557 
    1600          3.2    1.3880011    2.0813848   -4.0938723   -2.0124874    1.0042632 
    1650          3.3    1.3784106    2.0670033   -4.0798065   -2.0128032    1.0455589 
    1700          3.4    1.3806127    2.0703055   -4.0828423   -2.0125368    1.0665835 
    1750          3.5     1.377862    2.0661807   -4.0786386    -2.012458     1.093101 
    1800          3.6    1.3837147    2.0749571   -4.0868819   -2.0119248      1.08017 
    1850          3.7    1.3827201    2.0734656   -4.0856329   -2.0121673    1.0923691 
    1900          3.8     1.383553    2.0747146   -4.0871097   -2.0123951    1.0351654 
    1950          3.9    1.3860841    2.0785101   -4.0912159   -2.0127059    1.0321714 
    2000            4    1.3830437    2.0739509     -4.08661   -2.0126591    1.0504117 
    2050          4.1    1.3679541    2.0513232   -4.0643667   -2.0130435    1.1185624 
    2100          4.2    1.3851852    2.0771622   -4.0897871   -2.0126249    1.0421474 
    2150          4.3    1.3884319    2.0820308   -4.0941374   -2.0121067    1.0720634 
    2200          4.4    1.3872928    2.0803227   -4.0932388   -2.0129161    1.0765073 
    2250          4.5    1.3779497    2.0663121   -4.0789621   -2.0126501    1.1490948 
    2300          4.6    1.3948251    2.0916178   -4.1043146   -2.0126968    1.0494694 
    2350          4.7    1.3869473    2.0798045   -4.0931027   -2.0132982    1.0504297 
    2400          4.8    1.3995255    2.0986662   -4.1113564   -2.0126902   0.98405003 
    2450          4.9    1.3802006    2.0696874   -4.0824768   -2.0127893    1.1168048 
    2500            5     1.388123    2.0815676   -4.0941582   -2.0125906    1.0765773 
Loop time of 9.14772 on 1 procs for 2500 steps with 3375 atoms

Performance: 47224.860 tau/day, 273.292 timesteps/s
99.7% CPU use with 1 MPI tasks x no OpenMP threads

MPI task timing breakdown:
Section |  min time  |  avg time  |  max time  |%varavg| %total
---------------------------------------------------------------
Pair    | 8.0886     | 8.0886     | 8.0886     |   0.0 | 88.42
Neigh   | 0.76093    | 0.76093    | 0.76093    |   0.0 |  8.32
Comm    | 0.10372    | 0.10372    | 0.10372    |   0.0 |  1.13
Output  | 0.00082218 | 0.00082218 | 0.00082218 |   0.0 |  0.01
Modify  | 0.16819    | 0.16819    | 0.16819    |   0.0 |  1.84
Other   |            | 0.0255     |            |       |  0.28

Nlocal:        3375.00 ave        3375 max        3375 min
Histogram: 1 0 0 0 0 0 0 0 0 0
Nghost:        5403.00 ave        5403 max        5403 min
Histogram: 1 0 0 0 0 0 0 0 0 0
Neighs:        161495.0 ave      161495 max      161495 min
Histogram: 1 0 0 0 0 0 0 0 0 0

Total # of neighbors = 161495
Ave neighs/atom = 47.850370
Neighbor list builds = 125
Dangerous builds not checked
variable        diff_accum equal ${diff_accum}+${diff_integ}/(3*${loop_iterations})
variable        diff_accum equal 0.00792097861203027+${diff_integ}/(3*${loop_iterations})
variable        diff_accum equal 0.00792097861203027+0.618985374522703/(3*${loop_iterations})
variable        diff_accum equal 0.00792097861203027+0.618985374522703/(3*25)
unfix           fixVACF
write_data      liquid.T${temp}.rho${rho}.data
write_data      liquid.T1.4.rho${rho}.data
write_data      liquid.T1.4.rho0.64.data
System init for write_data ...
print           "" append log.vacf.T${temp}.rho${rho}.txt screen no
print           "" append log.vacf.T1.4.rho${rho}.txt screen no
print           "" append log.vacf.T1.4.rho0.64.txt screen no

next            loop_counter
jump            SELF loop
clear

pair_style	lj/smooth 2.5 3.0

read_data       liquid.T${temp}.rho${rho}.data
read_data       liquid.T1.4.rho${rho}.data
read_data       liquid.T1.4.rho0.64.data
Reading data file ...
  orthogonal box = (0.0000000 0.0000000 0.0000000) to (17.405958 17.405958 17.405958)
  1 by 1 by 1 MPI processor grid
  reading atoms ...
  3375 atoms
  reading velocities ...
  3375 velocities
  read_data CPU = 0.009 seconds

neighbor	0.3 bin
neigh_modify	every 20 delay 0 check no

fix		1 all nve
timestep        0.002
thermo		50

reset_timestep  0
compute         myVACF all vacf

fix             fixVACF all vector 1 c_myVACF[4]
variable        diff_integ equal dt*trap(f_fixVACF)
variable        curVACF equal c_myVACF[4]

variable        step0 equal step
variable        step0 equal $(v_step0)
variable        step0 equal 0
variable        dtime equal (step-${step0})*dt
variable        dtime equal (step-0)*dt
fix             print_vacf all print 2 "${dtime} ${curVACF} ${diff_integ}" append log.vacf.T${temp}.rho${rho}.txt screen no
fix             print_vacf all print 2 "${dtime} ${curVACF} ${diff_integ}" append log.vacf.T1.4.rho${rho}.txt screen no
fix             print_vacf all print 2 "${dtime} ${curVACF} ${diff_integ}" append log.vacf.T1.4.rho0.64.txt screen no
thermo_style	custom step time temp ke pe etotal press

run             ${loop_length}
run             2500
Neighbor list info ...
  update every 20 steps, delay 0 steps, check no
  max neighbors/atom: 2000, page size: 100000
  master list distance cutoff = 3.3
  ghost atom cutoff = 3.3
  binsize = 1.65, bins = 11 11 11
  1 neighbor lists, perpetual/occasional/extra = 1 0 0
  (1) pair lj/smooth, perpetual
      attributes: half, newton on
      pair build: half/bin/atomonly/newton
      stencil: half/bin/3d
      bin: standard
Per MPI rank memory allocation (min/avg/max) = 3.554 | 3.554 | 3.554 Mbytes
Step Time Temp KinEng PotEng TotEng Press 
       0            0     1.388123    2.0815676   -4.0941582   -2.0125906    1.0765773 
      50          0.1     1.395583    2.0927542   -4.1054829   -2.0127287   0.98435242 
     100          0.2    1.4083976    2.1119704   -4.1245877   -2.0126173   0.93595982 
     150          0.3    1.3728737    2.0587004   -4.0718247   -2.0131243    1.1530241 
     200          0.4    1.3738897    2.0602239   -4.0730152   -2.0127912    1.1546961 
     250          0.5    1.3842745    2.0757965   -4.0888785    -2.013082    1.0701621 
     300          0.6    1.3897635    2.0840275   -4.0971505    -2.013123    1.0471231 
     350          0.7      1.38169    2.0719209   -4.0845948   -2.0126739    1.0899388 
     400          0.8    1.3799212    2.0692685   -4.0822632   -2.0129947    1.0902352 
     450          0.9    1.3815964    2.0717806   -4.0849891   -2.0132085    1.0512541 
     500            1    1.3884126    2.0820019   -4.0949528   -2.0129509     1.049896 
     550          1.1    1.3889056    2.0827411   -4.0959611   -2.0132201    1.0765548 
     600          1.2    1.3978972    2.0962246   -4.1095179   -2.0132934    1.0492011 
     650          1.3    1.3828807    2.0737064   -4.0868298   -2.0131234    1.1620679 
     700          1.4    1.3877402    2.0809936   -4.0942907   -2.0132971    1.1100379 
     750          1.5     1.396632    2.0943273   -4.1075681   -2.0132408   0.99089608 
     800          1.6    1.3831765    2.0741499   -4.0875028   -2.0133529    1.0880126 
     850          1.7    1.3766722    2.0643965   -4.0772199   -2.0128234    1.1244065 
     900          1.8    1.3828074    2.0735965   -4.0862669   -2.0126704    1.0506333 
     950          1.9    1.4015822    2.1017504   -4.1142041   -2.0124537   0.94771941 
    1000            2    1.3903639    2.0849279   -4.0972008   -2.0122729   0.99913032 
    1050          2.1    1.3843046    2.0758416   -4.0884397   -2.0125981    1.0289282 
    1100          2.2    1.3824623     2.073079   -4.0852609   -2.0121819    1.0274971 
    1150          2.3    1.3868588    2.0796719   -4.0916811   -2.0120092   0.98564296 
    1200          2.4    1.3692435    2.0532567   -4.0659227    -2.012666     1.086617 
    1250          2.5    1.3926035    2.0882863   -4.1009969   -2.0127106   0.98700763 
    1300          2.6     1.392179    2.0876498   -4.1001773   -2.0125276   0.99440051 
    1350          2.7    1.3834292     2.074529   -4.0874597   -2.0129306    1.0278647 
    1400          2.8    1.3689155    2.0527648   -4.0652708    -2.012506    1.1140509 
    1450          2.9    1.3883849    2.0819603   -4.0944135   -2.0124532    1.0276817 
    1500            3    1.3619476    2.0423161   -4.0549773   -2.0126612    1.1432906 
    1550          3.1    1.3970443    2.0949456   -4.1073869   -2.0124414    0.9826244 
    1600          3.2    1.3973279    2.0953708   -4.1075618   -2.0121909   0.97579786 
    1650          3.3     1.374876     2.061703   -4.0737879   -2.0120849    1.0973858 
    1700          3.4     1.407262    2.1102675     -4.12275   -2.0124825   0.89055378 
    1750          3.5    1.3734278    2.0595313   -4.0721329   -2.0126016    1.0444308 
    1800          3.6    1.3908003    2.0855823   -4.0979955   -2.0124131   0.95167149 
    1850          3.7    1.3730805    2.0590105   -4.0717531   -2.0127426    1.0764844 
    1900          3.8    1.3749677    2.0618404   -4.0749539   -2.0131135    1.0844412 
    1950          3.9     1.384003    2.0753894   -4.0890765   -2.0136871    1.0665417 
    2000            4    1.3839275    2.0752761     -4.08863   -2.0133539    1.0818041 
    2050          4.1    1.3832371    2.0742409   -4.0878859    -2.013645    1.1149927 
    2100          4.2    1.3666436    2.0493581   -4.0627338   -2.0133757    1.1678916 
    2150          4.3    1.3908797    2.0857014   -4.0986895   -2.0129881    1.0130198 
    2200          4.4     1.402485    2.1031042   -4.1159024   -2.0127981   0.97223203 
    2250          4.5    1.3884131    2.0820026   -4.0952399   -2.0132373    1.0599877 
    2300          4.6    1.3753363    2.0623931   -4.0755852   -2.0131921    1.1102381 
    2350          4.7    1.3750326    2.0619378   -4.0747715   -2.0128337    1.1215459 
    2400          4.8    1.3828659    2.0736842   -4.0868881   -2.0132038    1.0595245 
    2450          4.9    1.3974008    2.0954801   -4.1081106   -2.0126305   0.98037146 
    2500            5    1.4010131     2.100897   -4.1135105   -2.0126136   0.95853815 
Loop time of 8.90455 on 1 procs for 2500 steps with 3375 atoms

Performance: 48514.516 tau/day, 280.755 timesteps/s
99.7% CPU use with 1 MPI tasks x no OpenMP threads

MPI task timing breakdown:
Section |  min time  |  avg time  |  max time  |%varavg| %total
---------------------------------------------------------------
Pair    | 7.8547     | 7.8547     | 7.8547     |   0.0 | 88.21
Neigh   | 0.75445    | 0.75445    | 0.75445    |   0.0 |  8.47
Comm    | 0.10346    | 0.10346    | 0.10346    |   0.0 |  1.16
Output  | 0.0008145  | 0.0008145  | 0.0008145  |   0.0 |  0.01
Modify  | 0.16573    | 0.16573    | 0.16573    |   0.0 |  1.86
Other   |            | 0.02537    |            |       |  0.28

Nlocal:        3375.00 ave        3375 max        3375 min
Histogram: 1 0 0 0 0 0 0 0 0 0
Nghost:        5506.00 ave        5506 max        5506 min
Histogram: 1 0 0 0 0 0 0 0 0 0
Neighs:        161336.0 ave      161336 max      161336 min
Histogram: 1 0 0 0 0 0 0 0 0 0

Total # of neighbors = 161336
Ave neighs/atom = 47.803259
Neighbor list builds = 125
Dangerous builds not checked
variable        diff_accum equal ${diff_accum}+${diff_integ}/(3*${loop_iterations})
variable        diff_accum equal 0.0161741169389996+${diff_integ}/(3*${loop_iterations})
variable        diff_accum equal 0.0161741169389996+0.580284674780779/(3*${loop_iterations})
variable        diff_accum equal 0.0161741169389996+0.580284674780779/(3*25)
unfix           fixVACF
write_data      liquid.T${temp}.rho${rho}.data
write_data      liquid.T1.4.rho${rho}.data
write_data      liquid.T1.4.rho0.64.data
System init for write_data ...
print           "" append log.vacf.T${temp}.rho${rho}.txt screen no
print           "" append log.vacf.T1.4.rho${rho}.txt screen no
print           "" append log.vacf.T1.4.rho0.64.txt screen no

next            loop_counter
jump            SELF loop
clear

pair_style	lj/smooth 2.5 3.0

read_data       liquid.T${temp}.rho${rho}.data
read_data       liquid.T1.4.rho${rho}.data
read_data       liquid.T1.4.rho0.64.data
Reading data file ...
  orthogonal box = (0.0000000 0.0000000 0.0000000) to (17.405958 17.405958 17.405958)
  1 by 1 by 1 MPI processor grid
  reading atoms ...
  3375 atoms
  reading velocities ...
  3375 velocities
  read_data CPU = 0.009 seconds

neighbor	0.3 bin
neigh_modify	every 20 delay 0 check no

fix		1 all nve
timestep        0.002
thermo		50

reset_timestep  0
compute         myVACF all vacf

fix             fixVACF all vector 1 c_myVACF[4]
variable        diff_integ equal dt*trap(f_fixVACF)
variable        curVACF equal c_myVACF[4]

variable        step0 equal step
variable        step0 equal $(v_step0)
variable        step0 equal 0
variable        dtime equal (step-${step0})*dt
variable        dtime equal (step-0)*dt
fix             print_vacf all print 2 "${dtime} ${curVACF} ${diff_integ}" append log.vacf.T${temp}.rho${rho}.txt screen no
fix             print_vacf all print 2 "${dtime} ${curVACF} ${diff_integ}" append log.vacf.T1.4.rho${rho}.txt screen no
fix             print_vacf all print 2 "${dtime} ${curVACF} ${diff_integ}" append log.vacf.T1.4.rho0.64.txt screen no
thermo_style	custom step time temp ke pe etotal press

run             ${loop_length}
run             2500
Neighbor list info ...
  update every 20 steps, delay 0 steps, check no
  max neighbors/atom: 2000, page size: 100000
  master list distance cutoff = 3.3
  ghost atom cutoff = 3.3
  binsize = 1.65, bins = 11 11 11
  1 neighbor lists, perpetual/occasional/extra = 1 0 0
  (1) pair lj/smooth, perpetual
      attributes: half, newton on
      pair build: half/bin/atomonly/newton
      stencil: half/bin/3d
      bin: standard
Per MPI rank memory allocation (min/avg/max) = 3.554 | 3.554 | 3.554 Mbytes
Step Time Temp KinEng PotEng TotEng Press 
       0            0    1.4010131     2.100897   -4.1135105   -2.0126136   0.95853815 
      50          0.1    1.3734685    2.0595924   -4.0726082   -2.0130158    1.0746514 
     100          0.2    1.3886708    2.0823891   -4.0952897   -2.0129006   0.99944451 
     150          0.3    1.3887563    2.0825172   -4.0956728   -2.0131555   0.99700175 
     200          0.4    1.3801772    2.0696524   -4.0822442   -2.0125917    1.0610436 
     250          0.5    1.4000144    2.0993993   -4.1118062   -2.0124069   0.98228271 
     300          0.6    1.3915592    2.0867203   -4.0995306   -2.0128102     1.016866 
     350          0.7    1.3743883    2.0609716   -4.0736703   -2.0126986    1.0755936 
     400          0.8     1.403322    2.1043594   -4.1167396   -2.0123802   0.90412301 
     450          0.9    1.3939865    2.0903602   -4.1030816   -2.0127214     0.982515 
     500            1    1.3950167     2.091905   -4.1041182   -2.0122132   0.99772004 
     550          1.1    1.3716672    2.0568912   -4.0702897   -2.0133985    1.1488271 
     600          1.2    1.3837889    2.0750683   -4.0879326   -2.0128643     1.104284 
     650          1.3    1.3803571    2.0699222   -4.0828215   -2.0128993    1.0941276 
     700          1.4    1.3930233    2.0889158      -4.1017   -2.0127842    1.0079357 
     750          1.5    1.3814512    2.0715628   -4.0842818    -2.012719    1.1018739 
     800          1.6     1.381115    2.0710587   -4.0836274   -2.0125687    1.0867817 
     850          1.7    1.3707278    2.0554824   -4.0686335   -2.0131511    1.1434156 
     900          1.8    1.3816093    2.0717999    -4.084831   -2.0130311    1.1065774 
     950          1.9    1.3636911    2.0449306   -4.0581771   -2.0132465    1.1862412 
    1000            2    1.4098884     2.114206   -4.1270337   -2.0128277   0.90154199 
    1050          2.1     1.381045    2.0709537   -4.0837424   -2.0127888    1.0260296 
    1100          2.2     1.383949    2.0753084   -4.0882206   -2.0129121    1.0023345 
    1150          2.3    1.4016048    2.1017842   -4.1143787   -2.0125945   0.92395089 
    1200          2.4     1.385847    2.0781545   -4.0904782   -2.0123237    1.0161923 
    1250          2.5    1.3885843    2.0822592   -4.0947195   -2.0124603    1.0505707 
    1300          2.6    1.3804855    2.0701147    -4.082875   -2.0127604    1.0848035 
    1350          2.7     1.397693    2.0959183   -4.1085314   -2.0126131    1.0080544 
    1400          2.8    1.3869229     2.079768   -4.0924634   -2.0126954    1.0771302 
    1450          2.9    1.3850548    2.0769666   -4.0898318   -2.0128651    1.0697858 
    1500            3    1.3944401    2.0910405   -4.1040502   -2.0130097    1.0104483 
    1550          3.1    1.3767445    2.0645049   -4.0770647   -2.0125598    1.1076842 
    1600          3.2    1.3704151    2.0550135   -4.0680276   -2.0130141     1.130124 
    1650          3.3     1.399715    2.0989504   -4.1114495   -2.0124991   0.97110708 
    1700          3.4    1.4074148    2.1104966   -4.1234108   -2.0129142   0.93470211 
    1750          3.5    1.3810876    2.0710176   -4.0839883   -2.0129707    1.0873315 
    1800          3.6    1.3706542    2.0553721   -4.0680009   -2.0126289    1.1316509 
    1850          3.7    1.4022161    2.1027009   -4.1152946   -2.0125936   0.99175963 
    1900          3.8    1.3787216    2.0674696   -4.0798451   -2.0123755    1.1312011 
    1950          3.9    1.3883167    2.0818581   -4.0944608   -2.0126028    1.0690474 
    2000            4    1.3733525    2.0594183   -4.0722684   -2.0128501    1.1226589 
    2050          4.1    1.3807229    2.0704707   -4.0833733   -2.0129026    1.0753998 
    2100          4.2     1.405149     2.107099   -4.1201876   -2.0130886   0.96952173 
    2150          4.3    1.3825848    2.0732627   -4.0859048   -2.0126421    1.0954658 
    2200          4.4    1.3816967    2.0719309   -4.0848407   -2.0129098    1.0942397 
    2250          4.5    1.3796991    2.0689355   -4.0817805    -2.012845    1.0858254 
    2300          4.6    1.3890861    2.0830118   -4.0956034   -2.0125915    1.0515412 
    2350          4.7    1.3821746    2.0726476   -4.0849421   -2.0122944    1.0686027 
    2400          4.8    1.3960648    2.0934768   -4.1060335   -2.0125567   0.96118686 
    2450          4.9    1.3800733    2.0694966   -4.0825356    -2.013039    1.0125702 
    2500            5    1.3866324    2.0793324   -4.0923112   -2.0129788   0.99725569 
Loop time of 8.85946 on 1 procs for 2500 steps with 3375 atoms

Performance: 48761.439 tau/day, 282.184 timesteps/s
99.7% CPU use with 1 MPI tasks x no OpenMP threads

MPI task timing breakdown:
Section |  min time  |  avg time  |  max time  |%varavg| %total
---------------------------------------------------------------
Pair    | 7.8028     | 7.8028     | 7.8028     |   0.0 | 88.07
Neigh   | 0.76019    | 0.76019    | 0.76019    |   0.0 |  8.58
Comm    | 0.10315    | 0.10315    | 0.10315    |   0.0 |  1.16
Output  | 0.00083951 | 0.00083951 | 0.00083951 |   0.0 |  0.01
Modify  | 0.16706    | 0.16706    | 0.16706    |   0.0 |  1.89
Other   |            | 0.02544    |            |       |  0.29

Nlocal:        3375.00 ave        3375 max        3375 min
Histogram: 1 0 0 0 0 0 0 0 0 0
Nghost:        5469.00 ave        5469 max        5469 min
Histogram: 1 0 0 0 0 0 0 0 0 0
Neighs:        161170.0 ave      161170 max      161170 min
Histogram: 1 0 0 0 0 0 0 0 0 0

Total # of neighbors = 161170
Ave neighs/atom = 47.754074
Neighbor list builds = 125
Dangerous builds not checked
variable        diff_accum equal ${diff_accum}+${diff_integ}/(3*${loop_iterations})
variable        diff_accum equal 0.0239112459360767+${diff_integ}/(3*${loop_iterations})
variable        diff_accum equal 0.0239112459360767+0.539372004776047/(3*${loop_iterations})
variable        diff_accum equal 0.0239112459360767+0.539372004776047/(3*25)
unfix           fixVACF
write_data      liquid.T${temp}.rho${rho}.data
write_data      liquid.T1.4.rho${rho}.data
write_data      liquid.T1.4.rho0.64.data
System init for write_data ...
print           "" append log.vacf.T${temp}.rho${rho}.txt screen no
print           "" append log.vacf.T1.4.rho${rho}.txt screen no
print           "" append log.vacf.T1.4.rho0.64.txt screen no

next            loop_counter
jump            SELF loop
clear

pair_style	lj/smooth 2.5 3.0

read_data       liquid.T${temp}.rho${rho}.data
read_data       liquid.T1.4.rho${rho}.data
read_data       liquid.T1.4.rho0.64.data
Reading data file ...
  orthogonal box = (0.0000000 0.0000000 0.0000000) to (17.405958 17.405958 17.405958)
  1 by 1 by 1 MPI processor grid
  reading atoms ...
  3375 atoms
  reading velocities ...
  3375 velocities
  read_data CPU = 0.009 seconds

neighbor	0.3 bin
neigh_modify	every 20 delay 0 check no

fix		1 all nve
timestep        0.002
thermo		50

reset_timestep  0
compute         myVACF all vacf

fix             fixVACF all vector 1 c_myVACF[4]
variable        diff_integ equal dt*trap(f_fixVACF)
variable        curVACF equal c_myVACF[4]

variable        step0 equal step
variable        step0 equal $(v_step0)
variable        step0 equal 0
variable        dtime equal (step-${step0})*dt
variable        dtime equal (step-0)*dt
fix             print_vacf all print 2 "${dtime} ${curVACF} ${diff_integ}" append log.vacf.T${temp}.rho${rho}.txt screen no
fix             print_vacf all print 2 "${dtime} ${curVACF} ${diff_integ}" append log.vacf.T1.4.rho${rho}.txt screen no
fix             print_vacf all print 2 "${dtime} ${curVACF} ${diff_integ}" append log.vacf.T1.4.rho0.64.txt screen no
thermo_style	custom step time temp ke pe etotal press

run             ${loop_length}
run             2500
Neighbor list info ...
  update every 20 steps, delay 0 steps, check no
  max neighbors/atom: 2000, page size: 100000
  master list distance cutoff = 3.3
  ghost atom cutoff = 3.3
  binsize = 1.65, bins = 11 11 11
  1 neighbor lists, perpetual/occasional/extra = 1 0 0
  (1) pair lj/smooth, perpetual
      attributes: half, newton on
      pair build: half/bin/atomonly/newton
      stencil: half/bin/3d
      bin: standard
Per MPI rank memory allocation (min/avg/max) = 3.552 | 3.552 | 3.552 Mbytes
Step Time Temp KinEng PotEng TotEng Press 
       0            0    1.3866324    2.0793324   -4.0923112   -2.0129788   0.99725569 
      50          0.1    1.3884981      2.08213    -4.095174    -2.013044    1.0044029 
     100          0.2    1.3868655    2.0796818   -4.0926164   -2.0129346     1.049258 
     150          0.3     1.401467    2.1015777   -4.1146607   -2.0130831   0.99379684 
     200          0.4    1.3914935    2.0866219   -4.0995481   -2.0129262     1.059671 
     250          0.5    1.3710546    2.0559725   -4.0686151   -2.0126426    1.1266549 
     300          0.6    1.3841063    2.0755443   -4.0880984   -2.0125541    1.0344946 
     350          0.7    1.3779375    2.0662938   -4.0790461   -2.0127523     1.074851 
     400          0.8    1.3889486    2.0828056   -4.0957018   -2.0128962    1.0647868 
     450          0.9    1.3820701    2.0724909   -4.0854465   -2.0129556    1.1140902 
     500            1    1.3744874    2.0611202   -4.0740758   -2.0129557    1.1088615 
     550          1.1    1.3880507    2.0814591   -4.0939029   -2.0124438    1.0051513 
     600          1.2    1.3858596    2.0781734   -4.0908455   -2.0126721     1.033821 
     650          1.3    1.3827482    2.0735077   -4.0860333   -2.0125256    1.0880139 
     700          1.4    1.3830332    2.0739351   -4.0864326   -2.0124975    1.0656488 
     750          1.5    1.3866782    2.0794009   -4.0923492   -2.0129483     1.060107 
     800          1.6    1.3926837    2.0884066   -4.1011806    -2.012774   0.99974494 
     850          1.7    1.3863215    2.0788661   -4.0920308   -2.0131648    1.0555602 
     900          1.8    1.3884145    2.0820046   -4.0946776    -2.012673    1.0399728 
     950          1.9      1.39313    2.0890758   -4.1016173   -2.0125415   0.98659866 
    1000            2    1.3833255    2.0743735   -4.0871543   -2.0127809    1.0497093 
    1050          2.1    1.3779753    2.0663505   -4.0792287   -2.0128782    1.1056223 
    1100          2.2    1.3781516    2.0666148   -4.0793951   -2.0127803    1.1320534 
    1150          2.3    1.3927025    2.0884348   -4.1016345   -2.0131997    1.0794442 
    1200          2.4    1.3773699    2.0654426   -4.0786065   -2.0131639    1.1155033 
    1250          2.5     1.391127    2.0860722   -4.0987197   -2.0126475    1.0780669 
    1300          2.6    1.3725847    2.0582671   -4.0714413   -2.0131743    1.1604035 
    1350          2.7    1.3860885    2.0785167   -4.0917998   -2.0132832    1.0781477 
    1400          2.8    1.3967289    2.0944726   -4.1079261   -2.0134535     1.023324 
    1450          2.9    1.3765093    2.0641521   -4.0774782    -2.013326    1.1397607 
    1500            3    1.3977374    2.0959848   -4.1094573   -2.0134725    1.0271559 
    1550          3.1    1.3728071    2.0586005   -4.0716826   -2.0130821    1.1284796 
    1600          3.2    1.3842177    2.0757114     -4.08822   -2.0125086    1.0440848 
    1650          3.3    1.3899145     2.084254   -4.0967775   -2.0125235    1.0305545 
    1700          3.4    1.3689664    2.0528411   -4.0655024   -2.0126613    1.1547588 
    1750          3.5    1.3807726    2.0705452    -4.083344   -2.0127988    1.0891438 
    1800          3.6    1.3900845     2.084509   -4.0975097   -2.0130007    1.0434805 
    1850          3.7    1.3923474    2.0879023   -4.1010344   -2.0131321    1.0841037 
    1900          3.8     1.385402    2.0774873   -4.0908935   -2.0134062    1.1579196 
    1950          3.9    1.3898158     2.084106   -4.0970151    -2.012909    1.1168083 
    2000            4     1.391028    2.0859238   -4.0988946   -2.0129708     1.104358 
    2050          4.1    1.3792493     2.068261   -4.0810841   -2.0128232    1.1498878 
    2100          4.2    1.4016907    2.1019131   -4.1146713   -2.0127582    1.0084961 
    2150          4.3    1.3921465    2.0876011   -4.1004091   -2.0128081    1.0092111 
    2200          4.4    1.3840141     2.075406    -4.088127    -2.012721    1.0287387 
    2250          4.5     1.393325    2.0893682   -4.1020435   -2.0126753    1.0216744 
    2300          4.6    1.4037202    2.1049565   -4.1179984    -2.013042    0.9813628 
    2350          4.7    1.3991984    2.0981757   -4.1112401   -2.0130644    1.0086362 
    2400          4.8    1.3611411    2.0411067   -4.0540506   -2.0129439    1.1920388 
    2450          4.9    1.3726106    2.0583059   -4.0714701   -2.0131642    1.1275895 
    2500            5    1.4055704    2.1077308   -4.1208388   -2.0131079    0.9844343 
Loop time of 8.86323 on 1 procs for 2500 steps with 3375 atoms

Performance: 48740.671 tau/day, 282.064 timesteps/s
99.7% CPU use with 1 MPI tasks x no OpenMP threads

MPI task timing breakdown:
Section |  min time  |  avg time  |  max time  |%varavg| %total
---------------------------------------------------------------
Pair    | 7.8089     | 7.8089     | 7.8089     |   0.0 | 88.10
Neigh   | 0.75837    | 0.75837    | 0.75837    |   0.0 |  8.56
Comm    | 0.1047     | 0.1047     | 0.1047     |   0.0 |  1.18
Output  | 0.0008058  | 0.0008058  | 0.0008058  |   0.0 |  0.01
Modify  | 0.16531    | 0.16531    | 0.16531    |   0.0 |  1.87
Other   |            | 0.0251     |            |       |  0.28

Nlocal:        3375.00 ave        3375 max        3375 min
Histogram: 1 0 0 0 0 0 0 0 0 0
Nghost:        5538.00 ave        5538 max        5538 min
Histogram: 1 0 0 0 0 0 0 0 0 0
Neighs:        161395.0 ave      161395 max      161395 min
Histogram: 1 0 0 0 0 0 0 0 0 0

Total # of neighbors = 161395
Ave neighs/atom = 47.820741
Neighbor list builds = 125
Dangerous builds not checked
variable        diff_accum equal ${diff_accum}+${diff_integ}/(3*${loop_iterations})
variable        diff_accum equal 0.031102872666424+${diff_integ}/(3*${loop_iterations})
variable        diff_accum equal 0.031102872666424+0.498333750463777/(3*${loop_iterations})
variable        diff_accum equal 0.031102872666424+0.498333750463777/(3*25)
unfix           fixVACF
write_data      liquid.T${temp}.rho${rho}.data
write_data      liquid.T1.4.rho${rho}.data
write_data      liquid.T1.4.rho0.64.data
System init for write_data ...
print           "" append log.vacf.T${temp}.rho${rho}.txt screen no
print           "" append log.vacf.T1.4.rho${rho}.txt screen no
print           "" append log.vacf.T1.4.rho0.64.txt screen no

next            loop_counter
jump            SELF loop
clear

pair_style	lj/smooth 2.5 3.0

read_data       liquid.T${temp}.rho${rho}.data
read_data       liquid.T1.4.rho${rho}.data
read_data       liquid.T1.4.rho0.64.data
Reading data file ...
  orthogonal box = (0.0000000 0.0000000 0.0000000) to (17.405958 17.405958 17.405958)
  1 by 1 by 1 MPI processor grid
  reading atoms ...
  3375 atoms
  reading velocities ...
  3375 velocities
  read_data CPU = 0.009 seconds

neighbor	0.3 bin
neigh_modify	every 20 delay 0 check no

fix		1 all nve
timestep        0.002
thermo		50

reset_timestep  0
compute         myVACF all vacf

fix             fixVACF all vector 1 c_myVACF[4]
variable        diff_integ equal dt*trap(f_fixVACF)
variable        curVACF equal c_myVACF[4]

variable        step0 equal step
variable        step0 equal $(v_step0)
variable        step0 equal 0
variable        dtime equal (step-${step0})*dt
variable        dtime equal (step-0)*dt
fix             print_vacf all print 2 "${dtime} ${curVACF} ${diff_integ}" append log.vacf.T${temp}.rho${rho}.txt screen no
fix             print_vacf all print 2 "${dtime} ${curVACF} ${diff_integ}" append log.vacf.T1.4.rho${rho}.txt screen no
fix             print_vacf all print 2 "${dtime} ${curVACF} ${diff_integ}" append log.vacf.T1.4.rho0.64.txt screen no
thermo_style	custom step time temp ke pe etotal press

run             ${loop_length}
run             2500
Neighbor list info ...
  update every 20 steps, delay 0 steps, check no
  max neighbors/atom: 2000, page size: 100000
  master list distance cutoff = 3.3
  ghost atom cutoff = 3.3
  binsize = 1.65, bins = 11 11 11
  1 neighbor lists, perpetual/occasional/extra = 1 0 0
  (1) pair lj/smooth, perpetual
      attributes: half, newton on
      pair build: half/bin/atomonly/newton
      stencil: half/bin/3d
      bin: standard
Per MPI rank memory allocation (min/avg/max) = 3.554 | 3.554 | 3.554 Mbytes
Step Time Temp KinEng PotEng TotEng Press 
       0            0    1.4055704    2.1077308   -4.1208388   -2.0131079    0.9844343 
      50          0.1    1.3998536    2.0991583   -4.1124129   -2.0132546    1.0110134 
     100          0.2     1.389536    2.0836864   -4.0966729   -2.0129865    1.0744037 
     150          0.3    1.3714586    2.0565783   -4.0695112   -2.0129329    1.1630667 
     200          0.4    1.3880685    2.0814858   -4.0946159   -2.0131302    1.0557759 
     250          0.5    1.3768295    2.0646323   -4.0777138   -2.0130815    1.0960983 
     300          0.6    1.3833563    2.0744197   -4.0869016   -2.0124819     1.050219 
     350          0.7    1.3856216    2.0778166   -4.0910953   -2.0132787    1.0235346 
     400          0.8    1.3946745    2.0913919   -4.1045375   -2.0131455   0.95891259 
     450          0.9    1.3919413    2.0872933    -4.099565   -2.0122717   0.96548544 
     500            1    1.3883449    2.0819003   -4.0946162   -2.0127159   0.95672473 
     550          1.1    1.3922638    2.0877769    -4.100088   -2.0123111   0.97142776 
     600          1.2    1.3871786    2.0801514   -4.0926855   -2.0125341    1.0249246 
     650          1.3    1.3788364    2.0676418   -4.0802669   -2.0126251    1.0314498 
     700          1.4     1.368742    2.0525047   -4.0653542   -2.0128495    1.0842041 
     750          1.5    1.3975381    2.0956861   -4.1082455   -2.0125594   0.97177763 
     800          1.6    1.3774713    2.0655948    -4.078321   -2.0127263    1.0900436 
     850          1.7    1.3761258    2.0635771   -4.0763903   -2.0128132    1.1094222 
     900          1.8    1.3901187    2.0845602   -4.0972377   -2.0126775    1.0246612 
     950          1.9    1.3964092    2.0939932    -4.106851   -2.0128578    0.9908311 
    1000            2    1.4084468    2.1120442   -4.1242946   -2.0122503   0.93368309 
    1050          2.1    1.3831676    2.0741367    -4.086554   -2.0124173    1.0433462 
    1100          2.2    1.3819867    2.0723658   -4.0844231   -2.0120572    1.0768672 
    1150          2.3    1.3698814    2.0542132   -4.0670863   -2.0128731    1.1838806 
    1200          2.4    1.3958442     2.093146   -4.1055028   -2.0123568   0.99631442 
    1250          2.5    1.3807886    2.0705692   -4.0831906   -2.0126213     1.046708 
    1300          2.6    1.3855763    2.0777486   -4.0904448   -2.0126962    1.0642149 
    1350          2.7     1.392739    2.0884895   -4.1012679   -2.0127784     1.064541 
    1400          2.8    1.3921664    2.0876308   -4.0999985   -2.0123677    1.0279435 
    1450          2.9    1.3841477    2.0756063   -4.0882782   -2.0126719    1.0364423 
    1500            3    1.4036576    2.1048625   -4.1172784   -2.0124159   0.94135208 
    1550          3.1    1.3795054     2.068645    -4.081263    -2.012618    1.0612451 
    1600          3.2    1.3805342    2.0701878   -4.0827563   -2.0125685    1.0766687 
    1650          3.3    1.3832762    2.0742996   -4.0869274   -2.0126278    1.0598465 
    1700          3.4    1.3936683     2.089883   -4.1023694   -2.0124864    1.0013987 
    1750          3.5    1.3908522    2.0856601   -4.0982397   -2.0125796    1.0112316 
    1800          3.6    1.3867461    2.0795029   -4.0918708   -2.0123679    1.0286643 
    1850          3.7    1.3899255    2.0842705   -4.0963535    -2.012083    1.0240076 
    1900          3.8     1.403988    2.1053581   -4.1179377   -2.0125797    0.9512196 
    1950          3.9    1.3918368    2.0871366   -4.0995098   -2.0123732    1.0337859 
    2000            4    1.3769557    2.0648215   -4.0777882   -2.0129666    1.0835773 
    2050          4.1    1.3835545    2.0747169   -4.0874399    -2.012723    1.0350779 
    2100          4.2    1.3917657    2.0870301   -4.0995556   -2.0125256    1.0098862 
    2150          4.3    1.3886746    2.0823947   -4.0948822   -2.0124875    1.0423053 
    2200          4.4    1.4002786    2.0997956   -4.1128223   -2.0130267   0.96294495 
    2250          4.5    1.3846565    2.0763694   -4.0892461   -2.0128767    1.0400448 
    2300          4.6    1.3921176    2.0875577    -4.101013   -2.0134553    1.0521683 
    2350          4.7    1.3888169    2.0826081   -4.0955606   -2.0129525     1.043211 
    2400          4.8    1.4012269    2.1012176   -4.1140703   -2.0128528   0.97678869 
    2450          4.9    1.3956596    2.0928691   -4.1057606   -2.0128915    1.0113401 
    2500            5    1.3863343    2.0788852   -4.0920576   -2.0131724    1.0952552 
Loop time of 8.88117 on 1 procs for 2500 steps with 3375 atoms

Performance: 48642.236 tau/day, 281.494 timesteps/s
99.8% CPU use with 1 MPI tasks x no OpenMP threads

MPI task timing breakdown:
Section |  min time  |  avg time  |  max time  |%varavg| %total
---------------------------------------------------------------
Pair    | 7.8304     | 7.8304     | 7.8304     |   0.0 | 88.17
Neigh   | 0.75545    | 0.75545    | 0.75545    |   0.0 |  8.51
Comm    | 0.10501    | 0.10501    | 0.10501    |   0.0 |  1.18
Output  | 0.00081751 | 0.00081751 | 0.00081751 |   0.0 |  0.01
Modify  | 0.1644     | 0.1644     | 0.1644     |   0.0 |  1.85
Other   |            | 0.02511    |            |       |  0.28

Nlocal:        3375.00 ave        3375 max        3375 min
Histogram: 1 0 0 0 0 0 0 0 0 0
Nghost:        5513.00 ave        5513 max        5513 min
Histogram: 1 0 0 0 0 0 0 0 0 0
Neighs:        161375.0 ave      161375 max      161375 min
Histogram: 1 0 0 0 0 0 0 0 0 0

Total # of neighbors = 161375
Ave neighs/atom = 47.814815
Neighbor list builds = 125
Dangerous builds not checked
variable        diff_accum equal ${diff_accum}+${diff_integ}/(3*${loop_iterations})
variable        diff_accum equal 0.0377473226726077+${diff_integ}/(3*${loop_iterations})
variable        diff_accum equal 0.0377473226726077+0.608589350743366/(3*${loop_iterations})
variable        diff_accum equal 0.0377473226726077+0.608589350743366/(3*25)
unfix           fixVACF
write_data      liquid.T${temp}.rho${rho}.data
write_data      liquid.T1.4.rho${rho}.data
write_data      liquid.T1.4.rho0.64.data
System init for write_data ...
print           "" append log.vacf.T${temp}.rho${rho}.txt screen no
print           "" append log.vacf.T1.4.rho${rho}.txt screen no
print           "" append log.vacf.T1.4.rho0.64.txt screen no

next            loop_counter
jump            SELF loop
clear

pair_style	lj/smooth 2.5 3.0

read_data       liquid.T${temp}.rho${rho}.data
read_data       liquid.T1.4.rho${rho}.data
read_data       liquid.T1.4.rho0.64.data
Reading data file ...
  orthogonal box = (0.0000000 0.0000000 0.0000000) to (17.405958 17.405958 17.405958)
  1 by 1 by 1 MPI processor grid
  reading atoms ...
  3375 atoms
  reading velocities ...
  3375 velocities
  read_data CPU = 0.009 seconds

neighbor	0.3 bin
neigh_modify	every 20 delay 0 check no

fix		1 all nve
timestep        0.002
thermo		50

reset_timestep  0
compute         myVACF all vacf

fix             fixVACF all vector 1 c_myVACF[4]
variable        diff_integ equal dt*trap(f_fixVACF)
variable        curVACF equal c_myVACF[4]

variable        step0 equal step
variable        step0 equal $(v_step0)
variable        step0 equal 0
variable        dtime equal (step-${step0})*dt
variable        dtime equal (step-0)*dt
fix             print_vacf all print 2 "${dtime} ${curVACF} ${diff_integ}" append log.vacf.T${temp}.rho${rho}.txt screen no
fix             print_vacf all print 2 "${dtime} ${curVACF} ${diff_integ}" append log.vacf.T1.4.rho${rho}.txt screen no
fix             print_vacf all print 2 "${dtime} ${curVACF} ${diff_integ}" append log.vacf.T1.4.rho0.64.txt screen no
thermo_style	custom step time temp ke pe etotal press

run             ${loop_length}
run             2500
Neighbor list info ...
  update every 20 steps, delay 0 steps, check no
  max neighbors/atom: 2000, page size: 100000
  master list distance cutoff = 3.3
  ghost atom cutoff = 3.3
  binsize = 1.65, bins = 11 11 11
  1 neighbor lists, perpetual/occasional/extra = 1 0 0
  (1) pair lj/smooth, perpetual
      attributes: half, newton on
      pair build: half/bin/atomonly/newton
      stencil: half/bin/3d
      bin: standard
Per MPI rank memory allocation (min/avg/max) = 3.556 | 3.556 | 3.556 Mbytes
Step Time Temp KinEng PotEng TotEng Press 
       0            0    1.3863343    2.0788852   -4.0920576   -2.0131724    1.0952552 
      50          0.1    1.4038584    2.1051637   -4.1187846   -2.0136209   0.98801541 
     100          0.2    1.3879465    2.0813029   -4.0947998   -2.0134968    1.0613209 
     150          0.3     1.389059    2.0829711   -4.0963743   -2.0134031     1.063877 
     200          0.4    1.3929316    2.0887782    -4.102021   -2.0132427    1.0796298 
     250          0.5     1.387402    2.0804863   -4.0937218   -2.0132354    1.0910486 
     300          0.6    1.3910189    2.0859101   -4.0992603   -2.0133502    1.0696479 
     350          0.7    1.3790552    2.0679699   -4.0805363   -2.0125664    1.1075223 
     400          0.8    1.3947904    2.0915658   -4.1046408    -2.013075    1.0261454 
     450          0.9    1.3869118    2.0797513    -4.092547   -2.0127957    1.0355726 
     500            1    1.3856533     2.077864   -4.0905687   -2.0127046    1.0313807 
     550          1.1    1.3990103    2.0978937   -4.1106015   -2.0127077    0.9605438 
     600          1.2    1.3848458    2.0766531   -4.0895176   -2.0128644    1.0393705 
     650          1.3    1.3848287    2.0766276   -4.0895334   -2.0129058    1.0523419 
     700          1.4    1.3734189    2.0595179   -4.0724417   -2.0129238    1.1031361 
     750          1.5    1.3741542    2.0606205   -4.0737262   -2.0131056    1.1259415 
     800          1.6    1.3781268    2.0665777   -4.0799115   -2.0133339    1.1185268 
     850          1.7    1.3625411     2.043206   -4.0559366   -2.0127306    1.1662929 
     900          1.8    1.3710761    2.0560048   -4.0682796   -2.0122748    1.1280232 
     950          1.9    1.3864129    2.0790031   -4.0922282    -2.013225    1.0755564 
    1000            2     1.366272    2.0488007   -4.0621457   -2.0133449    1.1885254 
    1050          2.1    1.3789579     2.067824    -4.080764   -2.0129399    1.0787931 
    1100          2.2    1.3991571    2.0981138   -4.1107193   -2.0126055   0.96724189 
    1150          2.3    1.3901545    2.0846139   -4.0970487   -2.0124348    1.0222832 
    1200          2.4    1.3776418    2.0658504   -4.0782984    -2.012448     1.059009 
    1250          2.5    1.3779995    2.0663869   -4.0788013   -2.0124144    1.0618847 
    1300          2.6    1.3765776    2.0642546   -4.0769713   -2.0127167    1.0930692 
    1350          2.7    1.3719358     2.057294   -4.0702109   -2.0129169    1.0835755 
    1400          2.8    1.3752642     2.062285   -4.0750887   -2.0128037    1.0483657 
    1450          2.9    1.3846053    2.0762926   -4.0885446    -2.012252   0.97970427 
    1500            3    1.3890488    2.0829559   -4.0956889    -2.012733   0.99659952 
    1550          3.1    1.3890188    2.0829109    -4.095287    -2.012376    1.0116725 
    1600          3.2    1.3696366    2.0538462   -4.0664442    -2.012598    1.0962702 
    1650          3.3    1.3860627    2.0784781     -4.09082   -2.0123419    1.0130438 
    1700          3.4    1.3739942    2.0603806   -4.0733677   -2.0129871    1.1238542 
    1750          3.5     1.380284    2.0698125   -4.0824288   -2.0126162    1.1130283 
    1800          3.6    1.3966584    2.0943669   -4.1069092   -2.0125423    1.0223258 
    1850          3.7    1.4064298    2.1090197   -4.1213951   -2.0123755   0.98074793 
    1900          3.8    1.3913742     2.086443    -4.099361   -2.0129181    1.0406378 
    1950          3.9     1.391719    2.0869599   -4.0997919    -2.012832    1.0438784 
    2000            4    1.3886773    2.0823987   -4.0955301   -2.0131313    1.0602579 
    2050          4.1    1.3882803    2.0818034   -4.0947604    -2.012957    1.0259863 
    2100          4.2    1.3917817     2.087054   -4.0996091    -2.012555    1.0285391 
    2150          4.3    1.3911832    2.0861565   -4.0988719   -2.0127154    1.0212119 
    2200          4.4     1.381415    2.0715085    -4.084281   -2.0127725    1.0568155 
    2250          4.5    1.3916079    2.0867934   -4.0996324    -2.012839    1.0428424 
    2300          4.6    1.3794666    2.0685868   -4.0815561   -2.0129693    1.1086852 
    2350          4.7    1.3969688    2.0948324   -4.1076295   -2.0127972    0.9903373 
    2400          4.8    1.3991419     2.098091    -4.110588    -2.012497   0.95638938 
    2450          4.9    1.3718297    2.0571348   -4.0695146   -2.0123798    1.0805791 
    2500            5    1.3969306     2.094775   -4.1072593   -2.0124843   0.95312378 
Loop time of 8.85059 on 1 procs for 2500 steps with 3375 atoms

Performance: 48810.327 tau/day, 282.467 timesteps/s
99.7% CPU use with 1 MPI tasks x no OpenMP threads

MPI task timing breakdown:
Section |  min time  |  avg time  |  max time  |%varavg| %total
---------------------------------------------------------------
Pair    | 7.7954     | 7.7954     | 7.7954     |   0.0 | 88.08
Neigh   | 0.7607     | 0.7607     | 0.7607     |   0.0 |  8.59
Comm    | 0.10417    | 0.10417    | 0.10417    |   0.0 |  1.18
Output  | 0.00081222 | 0.00081222 | 0.00081222 |   0.0 |  0.01
Modify  | 0.1643     | 0.1643     | 0.1643     |   0.0 |  1.86
Other   |            | 0.02519    |            |       |  0.28

Nlocal:        3375.00 ave        3375 max        3375 min
Histogram: 1 0 0 0 0 0 0 0 0 0
Nghost:        5571.00 ave        5571 max        5571 min
Histogram: 1 0 0 0 0 0 0 0 0 0
Neighs:        161425.0 ave      161425 max      161425 min
Histogram: 1 0 0 0 0 0 0 0 0 0

Total # of neighbors = 161425
Ave neighs/atom = 47.829630
Neighbor list builds = 125
Dangerous builds not checked
variable        diff_accum equal ${diff_accum}+${diff_integ}/(3*${loop_iterations})
variable        diff_accum equal 0.0458618473491859+${diff_integ}/(3*${loop_iterations})
variable        diff_accum equal 0.0458618473491859+0.574437229438271/(3*${loop_iterations})
variable        diff_accum equal 0.0458618473491859+0.574437229438271/(3*25)
unfix           fixVACF
write_data      liquid.T${temp}.rho${rho}.data
write_data      liquid.T1.4.rho${rho}.data
write_data      liquid.T1.4.rho0.64.data
System init for write_data ...
print           "" append log.vacf.T${temp}.rho${rho}.txt screen no
print           "" append log.vacf.T1.4.rho${rho}.txt screen no
print           "" append log.vacf.T1.4.rho0.64.txt screen no

next            loop_counter
jump            SELF loop
clear

pair_style	lj/smooth 2.5 3.0

read_data       liquid.T${temp}.rho${rho}.data
read_data       liquid.T1.4.rho${rho}.data
read_data       liquid.T1.4.rho0.64.data
Reading data file ...
  orthogonal box = (0.0000000 0.0000000 0.0000000) to (17.405958 17.405958 17.405958)
  1 by 1 by 1 MPI processor grid
  reading atoms ...
  3375 atoms
  reading velocities ...
  3375 velocities
  read_data CPU = 0.009 seconds

neighbor	0.3 bin
neigh_modify	every 20 delay 0 check no

fix		1 all nve
timestep        0.002
thermo		50

reset_timestep  0
compute         myVACF all vacf

fix             fixVACF all vector 1 c_myVACF[4]
variable        diff_integ equal dt*trap(f_fixVACF)
variable        curVACF equal c_myVACF[4]

variable        step0 equal step
variable        step0 equal $(v_step0)
variable        step0 equal 0
variable        dtime equal (step-${step0})*dt
variable        dtime equal (step-0)*dt
fix             print_vacf all print 2 "${dtime} ${curVACF} ${diff_integ}" append log.vacf.T${temp}.rho${rho}.txt screen no
fix             print_vacf all print 2 "${dtime} ${curVACF} ${diff_integ}" append log.vacf.T1.4.rho${rho}.txt screen no
fix             print_vacf all print 2 "${dtime} ${curVACF} ${diff_integ}" append log.vacf.T1.4.rho0.64.txt screen no
thermo_style	custom step time temp ke pe etotal press

run             ${loop_length}
run             2500
Neighbor list info ...
  update every 20 steps, delay 0 steps, check no
  max neighbors/atom: 2000, page size: 100000
  master list distance cutoff = 3.3
  ghost atom cutoff = 3.3
  binsize = 1.65, bins = 11 11 11
  1 neighbor lists, perpetual/occasional/extra = 1 0 0
  (1) pair lj/smooth, perpetual
      attributes: half, newton on
      pair build: half/bin/atomonly/newton
      stencil: half/bin/3d
      bin: standard
Per MPI rank memory allocation (min/avg/max) = 3.559 | 3.559 | 3.559 Mbytes
Step Time Temp KinEng PotEng TotEng Press 
       0            0    1.3969306     2.094775   -4.1072593   -2.0124843   0.95312378 
      50          0.1    1.3941685    2.0906331   -4.1035595   -2.0129264     1.001151 
     100          0.2     1.386489    2.0791173   -4.0920069   -2.0128896    1.0823447 
     150          0.3    1.3967704    2.0945348   -4.1076391   -2.0131043     1.022634 
     200          0.4    1.3623791    2.0429632   -4.0560808   -2.0131176    1.2165957 
     250          0.5    1.3720847    2.0575172   -4.0710745   -2.0135573    1.1442141 
     300          0.6    1.3896809    2.0839037   -4.0972038   -2.0133001    1.0493967 
     350          0.7    1.3761988    2.0636865   -4.0765693   -2.0128828    1.0835075 
     400          0.8    1.3869422    2.0797969   -4.0920433   -2.0122464    1.0319487 
     450          0.9    1.3839054    2.0752431   -4.0875398   -2.0122967    1.0497848 
     500            1    1.3876634    2.0808784   -4.0932427   -2.0123643    1.0352339 
     550          1.1    1.3963856    2.0939578   -4.1063533   -2.0123956   0.97081461 
     600          1.2    1.3752354    2.0622419   -4.0752593   -2.0130174    1.0770038 
     650          1.3    1.3949875    2.0918613   -4.1045853    -2.012724    0.9711779 
     700          1.4    1.3872035    2.0801886   -4.0930664   -2.0128777    1.0237119 
     750          1.5    1.3710817    2.0560132   -4.0686391   -2.0126259    1.1229597 
     800          1.6    1.3863003    2.0788344   -4.0913938   -2.0125595    1.0206956 
     850          1.7    1.3873661    2.0804326   -4.0929236    -2.012491    0.9702483 
     900          1.8    1.3762178    2.0637151   -4.0764904   -2.0127753    1.0279865 
     950          1.9    1.3943737    2.0909408    -4.103716   -2.0127751   0.90750692 
    1000            2    1.3688984    2.0527392   -4.0654864   -2.0127471    1.0381439 
    1050          2.1     1.384753    2.0765141   -4.0892401    -2.012726   0.99075653 
    1100          2.2    1.3790851    2.0680147   -4.0809262   -2.0129115    1.0582602 
    1150          2.3     1.371478    2.0566075   -4.0700888   -2.0134814    1.1238251 
    1200          2.4    1.3581166    2.0365713   -4.0496281   -2.0130568    1.2044676 
    1250          2.5    1.3987469    2.0974986   -4.1106636    -2.013165   0.97097278 
    1300          2.6    1.3965615    2.0942216   -4.1072304   -2.0130089    0.9905045 
    1350          2.7    1.3846381    2.0763417   -4.0893709   -2.0130292    1.0758515 
    1400          2.8    1.3761117    2.0635559   -4.0762611   -2.0127052    1.1383157 
    1450          2.9    1.4074584     2.110562   -4.1231017   -2.0125397    0.9677307 
    1500            3    1.3793788    2.0684551   -4.0808877   -2.0124326    1.1025785 
    1550          3.1    1.3949094    2.0917441   -4.1043316   -2.0125875    1.0217917 
    1600          3.2    1.3799665    2.0693364    -4.082176   -2.0128396     1.111582 
    1650          3.3    1.3761459    2.0636072   -4.0765788   -2.0129716    1.1646897 
    1700          3.4      1.36648    2.0491126   -4.0616717   -2.0125591    1.1877009 
    1750          3.5    1.4069283    2.1097671   -4.1222044   -2.0124373   0.97969175 
    1800          3.6    1.3944329    2.0910296   -4.1039547    -2.012925    1.0412387 
    1850          3.7    1.3876864    2.0809128   -4.0937345   -2.0128217    1.0672113 
    1900          3.8    1.3891007    2.0830337   -4.0959302   -2.0128965    1.0127523 
    1950          3.9    1.3876953    2.0809262    -4.094152   -2.0132258   0.97445824 
    2000            4    1.3774688    2.0655911   -4.0785149   -2.0129238    1.0709988 
    2050          4.1    1.4040916    2.1055133   -4.1187741   -2.0132607   0.94993926 
    2100          4.2    1.3725368    2.0581951   -4.0710454   -2.0128502    1.0999233 
    2150          4.3    1.3801169    2.0695619   -4.0824377   -2.0128758    1.0775622 
    2200          4.4    1.3837228    2.0749692   -4.0874798   -2.0125107    1.0653665 
    2250          4.5    1.3700547    2.0544732   -4.0669559   -2.0124827    1.1144496 
    2300          4.6    1.3759556    2.0633219   -4.0761733   -2.0128514    1.1114892 
    2350          4.7     1.371822    2.0571234    -4.070235   -2.0131116    1.1246176 
    2400          4.8    1.3939521    2.0903086   -4.1030594   -2.0127508   0.98928404 
    2450          4.9    1.3790086       2.0679   -4.0801724   -2.0122724    1.1264097 
    2500            5    1.3966419    2.0943421   -4.1068598   -2.0125177    1.0182164 
Loop time of 8.83351 on 1 procs for 2500 steps with 3375 atoms

Performance: 48904.670 tau/day, 283.013 timesteps/s
99.7% CPU use with 1 MPI tasks x no OpenMP threads

MPI task timing breakdown:
Section |  min time  |  avg time  |  max time  |%varavg| %total
---------------------------------------------------------------
Pair    | 7.7805     | 7.7805     | 7.7805     |   0.0 | 88.08
Neigh   | 0.75796    | 0.75796    | 0.75796    |   0.0 |  8.58
Comm    | 0.10437    | 0.10437    | 0.10437    |   0.0 |  1.18
Output  | 0.00083644 | 0.00083644 | 0.00083644 |   0.0 |  0.01
Modify  | 0.16475    | 0.16475    | 0.16475    |   0.0 |  1.87
Other   |            | 0.02505    |            |       |  0.28

Nlocal:        3375.00 ave        3375 max        3375 min
Histogram: 1 0 0 0 0 0 0 0 0 0
Nghost:        5455.00 ave        5455 max        5455 min
Histogram: 1 0 0 0 0 0 0 0 0 0
Neighs:        161403.0 ave      161403 max      161403 min
Histogram: 1 0 0 0 0 0 0 0 0 0

Total # of neighbors = 161403
Ave neighs/atom = 47.823111
Neighbor list builds = 125
Dangerous builds not checked
variable        diff_accum equal ${diff_accum}+${diff_integ}/(3*${loop_iterations})
variable        diff_accum equal 0.0535210104083628+${diff_integ}/(3*${loop_iterations})
variable        diff_accum equal 0.0535210104083628+0.596202085632826/(3*${loop_iterations})
variable        diff_accum equal 0.0535210104083628+0.596202085632826/(3*25)
unfix           fixVACF
write_data      liquid.T${temp}.rho${rho}.data
write_data      liquid.T1.4.rho${rho}.data
write_data      liquid.T1.4.rho0.64.data
System init for write_data ...
print           "" append log.vacf.T${temp}.rho${rho}.txt screen no
print           "" append log.vacf.T1.4.rho${rho}.txt screen no
print           "" append log.vacf.T1.4.rho0.64.txt screen no

next            loop_counter
jump            SELF loop
clear

pair_style	lj/smooth 2.5 3.0

read_data       liquid.T${temp}.rho${rho}.data
read_data       liquid.T1.4.rho${rho}.data
read_data       liquid.T1.4.rho0.64.data
Reading data file ...
  orthogonal box = (0.0000000 0.0000000 0.0000000) to (17.405958 17.405958 17.405958)
  1 by 1 by 1 MPI processor grid
  reading atoms ...
  3375 atoms
  reading velocities ...
  3375 velocities
  read_data CPU = 0.009 seconds

neighbor	0.3 bin
neigh_modify	every 20 delay 0 check no

fix		1 all nve
timestep        0.002
thermo		50

reset_timestep  0
compute         myVACF all vacf

fix             fixVACF all vector 1 c_myVACF[4]
variable        diff_integ equal dt*trap(f_fixVACF)
variable        curVACF equal c_myVACF[4]

variable        step0 equal step
variable        step0 equal $(v_step0)
variable        step0 equal 0
variable        dtime equal (step-${step0})*dt
variable        dtime equal (step-0)*dt
fix             print_vacf all print 2 "${dtime} ${curVACF} ${diff_integ}" append log.vacf.T${temp}.rho${rho}.txt screen no
fix             print_vacf all print 2 "${dtime} ${curVACF} ${diff_integ}" append log.vacf.T1.4.rho${rho}.txt screen no
fix             print_vacf all print 2 "${dtime} ${curVACF} ${diff_integ}" append log.vacf.T1.4.rho0.64.txt screen no
thermo_style	custom step time temp ke pe etotal press

run             ${loop_length}
run             2500
Neighbor list info ...
  update every 20 steps, delay 0 steps, check no
  max neighbors/atom: 2000, page size: 100000
  master list distance cutoff = 3.3
  ghost atom cutoff = 3.3
  binsize = 1.65, bins = 11 11 11
  1 neighbor lists, perpetual/occasional/extra = 1 0 0
  (1) pair lj/smooth, perpetual
      attributes: half, newton on
      pair build: half/bin/atomonly/newton
      stencil: half/bin/3d
      bin: standard
Per MPI rank memory allocation (min/avg/max) = 3.548 | 3.548 | 3.548 Mbytes
Step Time Temp KinEng PotEng TotEng Press 
       0            0    1.3966419    2.0943421   -4.1068598   -2.0125177    1.0182164 
      50          0.1    1.3781199    2.0665674   -4.0794511   -2.0128837    1.1094293 
     100          0.2     1.369005    2.0528991   -4.0658322   -2.0129332    1.1281551 
     150          0.3      1.39578    2.0930496   -4.1057587   -2.0127091   0.95694389 
     200          0.4    1.3812205    2.0712169   -4.0841686   -2.0129517    1.0524023 
     250          0.5    1.3879758    2.0813468   -4.0940945   -2.0127477    1.0863068 
     300          0.6    1.3789578    2.0678238   -4.0811198    -2.013296    1.1535406 
     350          0.7    1.4016683    2.1018795   -4.1146122   -2.0127326     1.041299 
     400          0.8    1.3891796     2.083152   -4.0954829   -2.0123309    1.0980335 
     450          0.9    1.3932814    2.0893029   -4.1016894   -2.0123865    1.0545383 
     500            1    1.3844809     2.076106   -4.0892325   -2.0131264    1.1170785 
     550          1.1    1.3833741    2.0744463   -4.0875281   -2.0130818    1.0510869 
     600          1.2    1.3869348    2.0797858   -4.0928432   -2.0130574    1.0282562 
     650          1.3    1.3810509    2.0709626    -4.084429   -2.0134664    1.0550668 
     700          1.4    1.3799117    2.0692542   -4.0824807   -2.0132265    1.0304902 
     750          1.5    1.3776281    2.0658299   -4.0789349    -2.013105     1.038618 
     800          1.6     1.375009    2.0619024   -4.0749194    -2.013017    1.0630671 
     850          1.7    1.3901691    2.0846358   -4.0975265   -2.0128906    1.0260538 
     900          1.8    1.3932823    2.0893042   -4.1019845   -2.0126802     1.022922 
     950          1.9    1.3805204     2.070167    -4.083013   -2.0128459    1.0862087 
    1000            2    1.4068244    2.1096114   -4.1224707   -2.0128593   0.93290898 
    1050          2.1    1.3848206    2.0766154   -4.0891094    -2.012494    1.0793594 
    1100          2.2    1.3725383    2.0581975    -4.071125   -2.0129275     1.133078 
    1150          2.3    1.3968239     2.094615   -4.1071296   -2.0125146    1.0124752 
    1200          2.4    1.3845951    2.0762773   -4.0889169   -2.0126396    1.0781259 
    1250          2.5    1.3875748    2.0807455   -4.0931548   -2.0124093    1.0560455 
    1300          2.6    1.3865438    2.0791995   -4.0917785    -2.012579    1.0538472 
    1350          2.7    1.3970553     2.094962   -4.1076967   -2.0127347   0.99278089 
    1400          2.8    1.3785103    2.0671528   -4.0805457   -2.0133929    1.0760003 
    1450          2.9    1.3863757    2.0789474   -4.0920508   -2.0131034    1.0607558 
    1500            3    1.3904795    2.0851013   -4.0982147   -2.0131134    1.0491355 
    1550          3.1    1.3999571    2.0993135   -4.1120285    -2.012715    1.0150039 
    1600          3.2    1.3907685    2.0855346   -4.0982008   -2.0126662    1.0279625 
    1650          3.3    1.3665234    2.0491778   -4.0617906   -2.0126128    1.1567982 
    1700          3.4    1.3812275    2.0712274   -4.0838697   -2.0126423    1.1237445 
    1750          3.5    1.3828178    2.0736121   -4.0862959   -2.0126839    1.1172428 
    1800          3.6    1.3803639    2.0699323   -4.0824309   -2.0124986    1.0781812 
    1850          3.7    1.3618325    2.0421435   -4.0548486   -2.0127051    1.1500779 
    1900          3.8    1.3898233    2.0841172   -4.0968173   -2.0127001   0.99647333 
    1950          3.9    1.3782388    2.0667456   -4.0791539   -2.0124083    1.0318918 
    2000            4     1.398571    2.0972349   -4.1098917   -2.0126567   0.96872253 
    2050          4.1    1.3743759     2.060953   -4.0734709   -2.0125179      1.11116 
    2100          4.2    1.3966685     2.094382   -4.1070681   -2.0126861    1.0066224 
    2150          4.3    1.3986091    2.0972921   -4.1097028   -2.0124107   0.99199565 
    2200          4.4     1.394586    2.0912593    -4.103921   -2.0126617    1.0330408 
    2250          4.5    1.3802091    2.0697002   -4.0822498   -2.0125495    1.1158088 
    2300          4.6    1.3940489    2.0904538   -4.1033548   -2.0129011    1.0331803 
    2350          4.7    1.3598746    2.0392075   -4.0517414   -2.0125339    1.2009047 
    2400          4.8    1.4071656     2.110123   -4.1224158   -2.0122928   0.93217534 
    2450          4.9    1.3872282    2.0802258   -4.0928517   -2.0126259    1.0423863 
    2500            5     1.396407    2.0939899   -4.1068407   -2.0128508     1.028859 
Loop time of 8.82448 on 1 procs for 2500 steps with 3375 atoms

Performance: 48954.729 tau/day, 283.303 timesteps/s
99.7% CPU use with 1 MPI tasks x no OpenMP threads

MPI task timing breakdown:
Section |  min time  |  avg time  |  max time  |%varavg| %total
---------------------------------------------------------------
Pair    | 7.7762     | 7.7762     | 7.7762     |   0.0 | 88.12
Neigh   | 0.75456    | 0.75456    | 0.75456    |   0.0 |  8.55
Comm    | 0.10311    | 0.10311    | 0.10311    |   0.0 |  1.17
Output  | 0.00084002 | 0.00084002 | 0.00084002 |   0.0 |  0.01
Modify  | 0.16465    | 0.16465    | 0.16465    |   0.0 |  1.87
Other   |            | 0.02516    |            |       |  0.29

Nlocal:        3375.00 ave        3375 max        3375 min
Histogram: 1 0 0 0 0 0 0 0 0 0
Nghost:        5452.00 ave        5452 max        5452 min
Histogram: 1 0 0 0 0 0 0 0 0 0
Neighs:        161453.0 ave      161453 max      161453 min
Histogram: 1 0 0 0 0 0 0 0 0 0

Total # of neighbors = 161453
Ave neighs/atom = 47.837926
Neighbor list builds = 125
Dangerous builds not checked
variable        diff_accum equal ${diff_accum}+${diff_integ}/(3*${loop_iterations})
variable        diff_accum equal 0.0614703715501338+${diff_integ}/(3*${loop_iterations})
variable        diff_accum equal 0.0614703715501338+0.608804382475986/(3*${loop_iterations})
variable        diff_accum equal 0.0614703715501338+0.608804382475986/(3*25)
unfix           fixVACF
write_data      liquid.T${temp}.rho${rho}.data
write_data      liquid.T1.4.rho${rho}.data
write_data      liquid.T1.4.rho0.64.data
System init for write_data ...
print           "" append log.vacf.T${temp}.rho${rho}.txt screen no
print           "" append log.vacf.T1.4.rho${rho}.txt screen no
print           "" append log.vacf.T1.4.rho0.64.txt screen no

next            loop_counter
jump            SELF loop
clear

pair_style	lj/smooth 2.5 3.0

read_data       liquid.T${temp}.rho${rho}.data
read_data       liquid.T1.4.rho${rho}.data
read_data       liquid.T1.4.rho0.64.data
Reading data file ...
  orthogonal box = (0.0000000 0.0000000 0.0000000) to (17.405958 17.405958 17.405958)
  1 by 1 by 1 MPI processor grid
  reading atoms ...
  3375 atoms
  reading velocities ...
  3375 velocities
  read_data CPU = 0.009 seconds

neighbor	0.3 bin
neigh_modify	every 20 delay 0 check no

fix		1 all nve
timestep        0.002
thermo		50

reset_timestep  0
compute         myVACF all vacf

fix             fixVACF all vector 1 c_myVACF[4]
variable        diff_integ equal dt*trap(f_fixVACF)
variable        curVACF equal c_myVACF[4]

variable        step0 equal step
variable        step0 equal $(v_step0)
variable        step0 equal 0
variable        dtime equal (step-${step0})*dt
variable        dtime equal (step-0)*dt
fix             print_vacf all print 2 "${dtime} ${curVACF} ${diff_integ}" append log.vacf.T${temp}.rho${rho}.txt screen no
fix             print_vacf all print 2 "${dtime} ${curVACF} ${diff_integ}" append log.vacf.T1.4.rho${rho}.txt screen no
fix             print_vacf all print 2 "${dtime} ${curVACF} ${diff_integ}" append log.vacf.T1.4.rho0.64.txt screen no
thermo_style	custom step time temp ke pe etotal press

run             ${loop_length}
run             2500
Neighbor list info ...
  update every 20 steps, delay 0 steps, check no
  max neighbors/atom: 2000, page size: 100000
  master list distance cutoff = 3.3
  ghost atom cutoff = 3.3
  binsize = 1.65, bins = 11 11 11
  1 neighbor lists, perpetual/occasional/extra = 1 0 0
  (1) pair lj/smooth, perpetual
      attributes: half, newton on
      pair build: half/bin/atomonly/newton
      stencil: half/bin/3d
      bin: standard
Per MPI rank memory allocation (min/avg/max) = 3.552 | 3.552 | 3.552 Mbytes
Step Time Temp KinEng PotEng TotEng Press 
       0            0     1.396407    2.0939899   -4.1068407   -2.0128508     1.028859 
      50          0.1    1.3922152    2.0877041   -4.1002421    -2.012538    1.0430372 
     100          0.2    1.3755993    2.0627876   -4.0758264   -2.0130388    1.0751669 
     150          0.3    1.3854481    2.0775563    -4.090658   -2.0131017    1.0204307 
     200          0.4    1.3931522    2.0891092   -4.1014994   -2.0123903   0.98431464 
     250          0.5    1.3819691    2.0723395    -4.084856   -2.0125165    1.0120208 
     300          0.6    1.3855551    2.0777169    -4.090028   -2.0123111   0.98489547 
     350          0.7    1.4004642    2.1000739   -4.1127032   -2.0126293   0.92962763 
     400          0.8    1.3621253    2.0425826   -4.0550315   -2.0124489    1.1043824 
     450          0.9    1.3693028    2.0533456   -4.0662753   -2.0129297    1.0912984 
     500            1    1.3728368     2.058645   -4.0716737   -2.0130287    1.0486755 
     550          1.1    1.3658671    2.0481935   -4.0611731   -2.0129796    1.1112941 
     600          1.2    1.3969997    2.0948787   -4.1076267    -2.012748   0.98811307 
     650          1.3    1.3868294    2.0796278   -4.0925698   -2.0129421    1.0583186 
     700          1.4    1.3766434    2.0643532   -4.0770434   -2.0126902    1.0888807 
     750          1.5    1.4018966    2.1022219   -4.1145563   -2.0123344   0.99361255 
     800          1.6    1.3963596    2.0939189   -4.1066963   -2.0127775    1.0269643 
     850          1.7    1.3900635    2.0844775   -4.0974538   -2.0129763    1.0375528 
     900          1.8    1.3827765    2.0735501   -4.0858653   -2.0123152    1.0719726 
     950          1.9    1.3674523    2.0505707   -4.0629271   -2.0123564    1.1331542 
    1000            2    1.3865097    2.0791483    -4.091678   -2.0125297    1.0354844 
    1050          2.1    1.3909696    2.0858362   -4.0983661   -2.0125299    1.0624327 
    1100          2.2    1.3781234    2.0665727   -4.0791323   -2.0125596    1.1069073 
    1150          2.3    1.4001985    2.0996754   -4.1122643   -2.0125889   0.98422873 
    1200          2.4    1.3788663    2.0676866   -4.0805421   -2.0128554    1.1103296 
    1250          2.5    1.3867707    2.0795398    -4.092168   -2.0126282    1.0268576 
    1300          2.6    1.3804413    2.0700484   -4.0825769   -2.0125285    1.0547944 
    1350          2.7    1.3877394    2.0809924   -4.0931751   -2.0121827   0.99676882 
    1400          2.8    1.3824846    2.0731124   -4.0851559   -2.0120434    1.0322039 
    1450          2.9     1.387938    2.0812901   -4.0939713   -2.0126812    1.0107665 
    1500            3    1.3963865    2.0939591    -4.106561   -2.0126018   0.99977128 
    1550          3.1    1.3979404    2.0962893   -4.1091816   -2.0128923    1.0213845 
    1600          3.2    1.3867781    2.0795508   -4.0924169   -2.0128661    1.1074545 
    1650          3.3    1.3830285     2.073928   -4.0863151   -2.0123871    1.0948816 
    1700          3.4     1.381212    2.0712042   -4.0839382    -2.012734    1.0594042 
    1750          3.5    1.3923926      2.08797   -4.1007182   -2.0127481   0.96386856 
[...]
    1850          3.7    1.3875092    2.0806471   -4.0938029   -2.0131558    1.0303641 
    1900          3.8     1.390979    2.0858503   -4.0992324   -2.0133821    1.0205137 
    1950          3.9    1.3650342    2.0469446   -4.0600506   -2.0131059    1.1487164 
    2000            4    1.3868566    2.0796686    -4.092618   -2.0129494    1.0775956 
    2050          4.1    1.3854249    2.0775217   -4.0903744   -2.0128527    1.0343383 
    2100          4.2    1.3840882    2.0755171   -4.0885218   -2.0130047    1.0533637 
    2150          4.3    1.3891273    2.0830736   -4.0955082   -2.0124346    1.0375886 
    2200          4.4    1.3861557    2.0786175   -4.0913592   -2.0127417    1.0798844 
    2250          4.5    1.3838865    2.0752146   -4.0879341   -2.0127195    1.0974233 
    2300          4.6    1.3856798    2.0779038   -4.0908224   -2.0129186    1.0616506 
    2350          4.7    1.3836624    2.0748786   -4.0876689   -2.0127903      1.04715 
    2400          4.8    1.3840867    2.0755149    -4.088566    -2.013051     1.057686 
    2450          4.9    1.3767057    2.0644467   -4.0773632   -2.0129165    1.0503551 
    2500            5    1.3912999    2.0863315   -4.0987899   -2.0124584   0.99008497 
Loop time of 8.78491 on 1 procs for 2500 steps with 3375 atoms

Performance: 49175.261 tau/day, 284.579 timesteps/s
99.8% CPU use with 1 MPI tasks x no OpenMP threads

MPI task timing breakdown:
Section |  min time  |  avg time  |  max time  |%varavg| %total
---------------------------------------------------------------
Pair    | 7.736      | 7.736      | 7.736      |   0.0 | 88.06
Neigh   | 0.75903    | 0.75903    | 0.75903    |   0.0 |  8.64
Comm    | 0.10208    | 0.10208    | 0.10208    |   0.0 |  1.16
Output  | 0.0008005  | 0.0008005  | 0.0008005  |   0.0 |  0.01
Modify  | 0.1618     | 0.1618     | 0.1618     |   0.0 |  1.84
Other   |            | 0.02516    |            |       |  0.29

Nlocal:        3375.00 ave        3375 max        3375 min
Histogram: 1 0 0 0 0 0 0 0 0 0
Nghost:        5446.00 ave        5446 max        5446 min
Histogram: 1 0 0 0 0 0 0 0 0 0
Neighs:        161505.0 ave      161505 max      161505 min
Histogram: 1 0 0 0 0 0 0 0 0 0

Total # of neighbors = 161505
Ave neighs/atom = 47.853333
Neighbor list builds = 125
Dangerous builds not checked
variable        diff_accum equal ${diff_accum}+${diff_integ}/(3*${loop_iterations})
variable        diff_accum equal 0.167245273641445+${diff_integ}/(3*${loop_iterations})
variable        diff_accum equal 0.167245273641445+0.545064021756196/(3*${loop_iterations})
variable        diff_accum equal 0.167245273641445+0.545064021756196/(3*25)
unfix           fixVACF
write_data      liquid.T${temp}.rho${rho}.data
write_data      liquid.T1.4.rho${rho}.data
write_data      liquid.T1.4.rho0.64.data
System init for write_data ...
print           "" append log.vacf.T${temp}.rho${rho}.txt screen no
print           "" append log.vacf.T1.4.rho${rho}.txt screen no
print           "" append log.vacf.T1.4.rho0.64.txt screen no

next            loop_counter
jump            SELF loop
clear

pair_style	lj/smooth 2.5 3.0

read_data       liquid.T${temp}.rho${rho}.data
read_data       liquid.T1.4.rho${rho}.data
read_data       liquid.T1.4.rho0.64.data
Reading data file ...
  orthogonal box = (0.0000000 0.0000000 0.0000000) to (17.405958 17.405958 17.405958)
  1 by 1 by 1 MPI processor grid
  reading atoms ...
  3375 atoms
  reading velocities ...
  3375 velocities
  read_data CPU = 0.009 seconds

neighbor	0.3 bin
neigh_modify	every 20 delay 0 check no

fix		1 all nve
timestep        0.002
thermo		50

reset_timestep  0
compute         myVACF all vacf

fix             fixVACF all vector 1 c_myVACF[4]
variable        diff_integ equal dt*trap(f_fixVACF)
variable        curVACF equal c_myVACF[4]

variable        step0 equal step
variable        step0 equal $(v_step0)
variable        step0 equal 0
variable        dtime equal (step-${step0})*dt
variable        dtime equal (step-0)*dt
fix             print_vacf all print 2 "${dtime} ${curVACF} ${diff_integ}" append log.vacf.T${temp}.rho${rho}.txt screen no
fix             print_vacf all print 2 "${dtime} ${curVACF} ${diff_integ}" append log.vacf.T1.4.rho${rho}.txt screen no
fix             print_vacf all print 2 "${dtime} ${curVACF} ${diff_integ}" append log.vacf.T1.4.rho0.64.txt screen no
thermo_style	custom step time temp ke pe etotal press

run             ${loop_length}
run             2500
Neighbor list info ...
  update every 20 steps, delay 0 steps, check no
  max neighbors/atom: 2000, page size: 100000
  master list distance cutoff = 3.3
  ghost atom cutoff = 3.3
  binsize = 1.65, bins = 11 11 11
  1 neighbor lists, perpetual/occasional/extra = 1 0 0
  (1) pair lj/smooth, perpetual
      attributes: half, newton on
      pair build: half/bin/atomonly/newton
      stencil: half/bin/3d
      bin: standard
Per MPI rank memory allocation (min/avg/max) = 3.554 | 3.554 | 3.554 Mbytes
Step Time Temp KinEng PotEng TotEng Press 
       0            0    1.3912999    2.0863315   -4.0987899   -2.0124584   0.99008497 
      50          0.1    1.3688131    2.0526113   -4.0653728   -2.0127616    1.1006095 
     100          0.2    1.3881308    2.0815792   -4.0946569   -2.0130777    1.0227126 
     150          0.3    1.3832058    2.0741939   -4.0870008   -2.0128069    1.0496399 
     200          0.4    1.3922755    2.0877945   -4.1002386   -2.0124441     1.034466 
     250          0.5    1.3837323    2.0749834   -4.0882894    -2.013306    1.1075868 
     300          0.6    1.3706147    2.0553129   -4.0680762   -2.0127633    1.1413324 
     350          0.7    1.3791437    2.0681025   -4.0809314   -2.0128289     1.060052 
     400          0.8     1.394341    2.0908919   -4.1035847   -2.0126928   0.94672185 
     450          0.9    1.3938627    2.0901746   -4.1030292   -2.0128545   0.96471247 
     500            1    1.3870383     2.079941   -4.0926259   -2.0126849    1.0269905 
     550          1.1    1.3843138    2.0758555   -4.0887376   -2.0128821    1.0505338 
     600          1.2    1.3775658    2.0657365   -4.0789054   -2.0131689    1.0724125 
     650          1.3    1.3863995    2.0789831   -4.0920387   -2.0130556    1.0656324 
     700          1.4    1.3781551    2.0666201   -4.0798443   -2.0132242    1.1116161 
     750          1.5    1.3862525    2.0787626   -4.0914906   -2.0127279    1.0560908 
     800          1.6    1.3773947    2.0654799   -4.0780998   -2.0126199    1.0796309 
     850          1.7    1.4001722     2.099636    -4.112674    -2.013038   0.93455395 
     900          1.8    1.3876026    2.0807872   -4.0936719   -2.0128847   0.99175702 
     950          1.9    1.3881485    2.0816059   -4.0945934   -2.0129875    1.0188147 
    1000            2    1.3862299    2.0787288   -4.0915951   -2.0128663     1.064748 
    1050          2.1     1.371265    2.0562881   -4.0694899   -2.0132018    1.1391791 
    1100          2.2    1.3782579    2.0667742   -4.0798027   -2.0130285    1.0444624 
    1150          2.3     1.387894    2.0812242   -4.0941329   -2.0129087     1.000165 
    1200          2.4    1.4017613     2.102019    -4.114902    -2.012883   0.95769137 
    1250          2.5    1.3872373    2.0802394   -4.0926995   -2.0124601     1.057879 
    1300          2.6    1.3821734    2.0726457   -4.0852851   -2.0126394    1.0630631 
    1350          2.7     1.395769    2.0930331   -4.1053146   -2.0122815    1.0101441 
    1400          2.8    1.3799941    2.0693779   -4.0818919    -2.012514    1.0526694 
    1450          2.9    1.3758382    2.0631458   -4.0755658     -2.01242     1.083845 
    1500            3    1.4005036     2.100133    -4.113086   -2.0129531   0.97703401 
    1550          3.1    1.3786243    2.0673237   -4.0798433   -2.0125197    1.0721573 
    1600          3.2    1.3761637    2.0636339    -4.076358   -2.0127241    1.0724604 
    1650          3.3    1.3766029    2.0642925   -4.0773766   -2.0130841    1.0585025 
    1700          3.4    1.3852282    2.0772266   -4.0903557   -2.0131291     1.045382 
    1750          3.5    1.3722307    2.0577362   -4.0708323   -2.0130961     1.156253 
    1800          3.6    1.3857537    2.0780146   -4.0911098   -2.0130952    1.0914144 
    1850          3.7    1.3659461    2.0483121   -4.0610335   -2.0127214    1.2038041 
    1900          3.8    1.3790089    2.0679005   -4.0807103   -2.0128098    1.1450411 
    1950          3.9    1.3770069    2.0648984   -4.0779144    -2.013016    1.1329214 
    2000            4    1.3905318    2.0851797   -4.0984635   -2.0132839    1.0200171 
    2050          4.1    1.3758548    2.0631706   -4.0760268   -2.0128561    1.0590815 
    2100          4.2    1.3770415    2.0649502    -4.078066   -2.0131158    1.0296085 
    2150          4.3    1.3749088    2.0617522   -4.0752201    -2.013468    1.0243565 
    2200          4.4    1.3943125     2.090849   -4.1044206   -2.0135716   0.92871386 
    2250          4.5    1.3810326    2.0709351   -4.0842262   -2.0132911    1.0607911 
    2300          4.6    1.3831259    2.0740741   -4.0871021    -2.013028    1.1128991 
    2350          4.7    1.3982294    2.0967227   -4.1093211   -2.0125984    1.0272514 
    2400          4.8    1.3843741    2.0759459   -4.0885707   -2.0126248    1.0642599 
    2450          4.9    1.3852724    2.0772929   -4.0898405   -2.0125476    1.0526151 
    2500            5     1.403614    2.1047972   -4.1172614   -2.0124642   0.92672289 
Loop time of 8.78724 on 1 procs for 2500 steps with 3375 atoms

Performance: 49162.222 tau/day, 284.504 timesteps/s
99.7% CPU use with 1 MPI tasks x no OpenMP threads

MPI task timing breakdown:
Section |  min time  |  avg time  |  max time  |%varavg| %total
---------------------------------------------------------------
Pair    | 7.7421     | 7.7421     | 7.7421     |   0.0 | 88.11
Neigh   | 0.75498    | 0.75498    | 0.75498    |   0.0 |  8.59
Comm    | 0.10143    | 0.10143    | 0.10143    |   0.0 |  1.15
Output  | 0.00080807 | 0.00080807 | 0.00080807 |   0.0 |  0.01
Modify  | 0.16281    | 0.16281    | 0.16281    |   0.0 |  1.85
Other   |            | 0.0251     |            |       |  0.29

Nlocal:        3375.00 ave        3375 max        3375 min
Histogram: 1 0 0 0 0 0 0 0 0 0
Nghost:        5474.00 ave        5474 max        5474 min
Histogram: 1 0 0 0 0 0 0 0 0 0
Neighs:        161223.0 ave      161223 max      161223 min
Histogram: 1 0 0 0 0 0 0 0 0 0

Total # of neighbors = 161223
Ave neighs/atom = 47.769778
Neighbor list builds = 125
Dangerous builds not checked
variable        diff_accum equal ${diff_accum}+${diff_integ}/(3*${loop_iterations})
variable        diff_accum equal 0.174512793931528+${diff_integ}/(3*${loop_iterations})
variable        diff_accum equal 0.174512793931528+0.636437272072899/(3*${loop_iterations})
variable        diff_accum equal 0.174512793931528+0.636437272072899/(3*25)
unfix           fixVACF
write_data      liquid.T${temp}.rho${rho}.data
write_data      liquid.T1.4.rho${rho}.data
write_data      liquid.T1.4.rho0.64.data
System init for write_data ...
print           "" append log.vacf.T${temp}.rho${rho}.txt screen no
print           "" append log.vacf.T1.4.rho${rho}.txt screen no
print           "" append log.vacf.T1.4.rho0.64.txt screen no

next            loop_counter
jump            SELF loop
clear

pair_style	lj/smooth 2.5 3.0

read_data       liquid.T${temp}.rho${rho}.data
read_data       liquid.T1.4.rho${rho}.data
read_data       liquid.T1.4.rho0.64.data
Reading data file ...
  orthogonal box = (0.0000000 0.0000000 0.0000000) to (17.405958 17.405958 17.405958)
  1 by 1 by 1 MPI processor grid
  reading atoms ...
  3375 atoms
  reading velocities ...
  3375 velocities
  read_data CPU = 0.009 seconds

neighbor	0.3 bin
neigh_modify	every 20 delay 0 check no

fix		1 all nve
timestep        0.002
thermo		50

reset_timestep  0
compute         myVACF all vacf

fix             fixVACF all vector 1 c_myVACF[4]
variable        diff_integ equal dt*trap(f_fixVACF)
variable        curVACF equal c_myVACF[4]

variable        step0 equal step
variable        step0 equal $(v_step0)
variable        step0 equal 0
variable        dtime equal (step-${step0})*dt
variable        dtime equal (step-0)*dt
fix             print_vacf all print 2 "${dtime} ${curVACF} ${diff_integ}" append log.vacf.T${temp}.rho${rho}.txt screen no
fix             print_vacf all print 2 "${dtime} ${curVACF} ${diff_integ}" append log.vacf.T1.4.rho${rho}.txt screen no
fix             print_vacf all print 2 "${dtime} ${curVACF} ${diff_integ}" append log.vacf.T1.4.rho0.64.txt screen no
thermo_style	custom step time temp ke pe etotal press

run             ${loop_length}
run             2500
Neighbor list info ...
  update every 20 steps, delay 0 steps, check no
  max neighbors/atom: 2000, page size: 100000
  master list distance cutoff = 3.3
  ghost atom cutoff = 3.3
  binsize = 1.65, bins = 11 11 11
  1 neighbor lists, perpetual/occasional/extra = 1 0 0
  (1) pair lj/smooth, perpetual
      attributes: half, newton on
      pair build: half/bin/atomonly/newton
      stencil: half/bin/3d
      bin: standard
Per MPI rank memory allocation (min/avg/max) = 3.555 | 3.555 | 3.555 Mbytes
Step Time Temp KinEng PotEng TotEng Press 
       0            0     1.403614    2.1047972   -4.1172614   -2.0124642   0.92672289 
      50          0.1    1.4066682    2.1093772   -4.1217417   -2.0123646   0.93924492 
     100          0.2    1.3946166     2.091305    -4.103664    -2.012359    1.0148393 
     150          0.3     1.378962    2.0678301   -4.0804807   -2.0126506    1.1040034 
     200          0.4    1.3822641    2.0727818   -4.0851225   -2.0123407    1.0650339 
     250          0.5    1.3977413    2.0959908   -4.1087477    -2.012757    1.0047963 
     300          0.6    1.3954454    2.0925479   -4.1056634   -2.0131156    1.0444833 
     350          0.7    1.3831472     2.074106   -4.0868116   -2.0127056    1.0785026 
     400          0.8    1.3898034    2.0840873   -4.0966466   -2.0125593    1.0137882 
     450          0.9    1.3755832    2.0627634   -4.0751826   -2.0124192    1.0835263 
     500            1    1.3780916     2.066525   -4.0790113   -2.0124863    1.0838884 
     550          1.1    1.3787547    2.0675193   -4.0803652   -2.0128459    1.0768448 
     600          1.2    1.3649805    2.0468642   -4.0594533   -2.0125891    1.1414778 
     650          1.3    1.3754271    2.0625293   -4.0750301   -2.0125008    1.0996537 
     700          1.4     1.373369    2.0594431   -4.0721789   -2.0127358    1.1196203 
     750          1.5    1.3844895     2.076119   -4.0887854   -2.0126664    1.0559484 
     800          1.6    1.3822479    2.0727576   -4.0858503   -2.0130927    1.1094838 
     850          1.7    1.3711385    2.0560983   -4.0691542    -2.013056    1.1666336 
     900          1.8    1.3818639    2.0721816   -4.0847959   -2.0126143    1.0708414 
     950          1.9    1.3681806    2.0516628    -4.064445   -2.0127823    1.1007527 
    1000            2    1.3813928    2.0714752    -4.083967   -2.0124918    1.0384078 
    1050          2.1    1.3958757    2.0931932   -4.1057033   -2.0125101    1.0058303 
    1100          2.2    1.3863799    2.0789537    -4.091448   -2.0124943    1.0552101 
    1150          2.3    1.3897535    2.0840126   -4.0965321   -2.0125195    1.0308733 
    1200          2.4    1.3851881    2.0771666   -4.0896412   -2.0124746    1.0502738 
    1250          2.5    1.3738573    2.0601753    -4.072616   -2.0124407    1.1064596 
    1300          2.6    1.3606786    2.0404132   -4.0534399   -2.0130267    1.1542383 
    1350          2.7    1.3604885    2.0401281   -4.0530045   -2.0128763    1.1440593 
    1400          2.8    1.3895824    2.0837561   -4.0965641    -2.012808    1.0630664 
    1450          2.9    1.3876703    2.0808887   -4.0937938   -2.0129051    1.1027725 
    1500            3    1.3935921    2.0897688   -4.1025334   -2.0127646    1.0528038 
    1550          3.1    1.3724151    2.0580127   -4.0707728   -2.0127602    1.1384444 
    1600          3.2    1.3754949     2.062631   -4.0752367   -2.0126057    1.1175455 
    1650          3.3    1.3820839    2.0725116   -4.0851281   -2.0126165    1.0826062 
    1700          3.4    1.3842482    2.0757571   -4.0884642   -2.0127071    1.0412824 
    1750          3.5     1.376231    2.0637348   -4.0769077   -2.0131729    1.0594598 
    1800          3.6    1.3684696    2.0520962   -4.0648764   -2.0127801    1.1310717 
    1850          3.7    1.3910222    2.0859151   -4.0990496   -2.0131345    1.0727852 
    1900          3.8    1.3853528    2.0774135   -4.0902015   -2.0127879    1.1028485 
    1950          3.9     1.380438    2.0700435   -4.0834485    -2.013405    1.0806617 
    2000            4    1.3993332    2.0983779   -4.1116132   -2.0132353    1.0062547 
    2050          4.1    1.3703802    2.0549612    -4.067584   -2.0126228    1.1228901 
    2100          4.2      1.37392    2.0602694   -4.0727689   -2.0124994    1.0807845 
    2150          4.3    1.3978215     2.096111   -4.1083048   -2.0121938   0.97932215 
    2200          4.4    1.3892098    2.0831972   -4.0956908   -2.0124936    1.0519319 
    2250          4.5    1.4005656    2.1002259   -4.1132362   -2.0130103    1.0051822 
    2300          4.6    1.3925622    2.0882243   -4.1008111   -2.0125868    1.0201074 
    2350          4.7    1.3850775    2.0770007   -4.0894514   -2.0124507    1.0477548 
    2400          4.8    1.3846735    2.0763949   -4.0885685   -2.0121736    1.0514875 
    2450          4.9    1.3915327    2.0866806   -4.0991194   -2.0124388    1.0090496 
    2500            5     1.380263     2.069781   -4.0824099   -2.0126289    1.0285788 
Loop time of 8.78061 on 1 procs for 2500 steps with 3375 atoms

Performance: 49199.307 tau/day, 284.718 timesteps/s
99.7% CPU use with 1 MPI tasks x no OpenMP threads

MPI task timing breakdown:
Section |  min time  |  avg time  |  max time  |%varavg| %total
---------------------------------------------------------------
Pair    | 7.733      | 7.733      | 7.733      |   0.0 | 88.07
Neigh   | 0.75847    | 0.75847    | 0.75847    |   0.0 |  8.64
Comm    | 0.10194    | 0.10194    | 0.10194    |   0.0 |  1.16
Output  | 0.00079567 | 0.00079567 | 0.00079567 |   0.0 |  0.01
Modify  | 0.16127    | 0.16127    | 0.16127    |   0.0 |  1.84
Other   |            | 0.02515    |            |       |  0.29

Nlocal:        3375.00 ave        3375 max        3375 min
Histogram: 1 0 0 0 0 0 0 0 0 0
Nghost:        5537.00 ave        5537 max        5537 min
Histogram: 1 0 0 0 0 0 0 0 0 0
Neighs:        161346.0 ave      161346 max      161346 min
Histogram: 1 0 0 0 0 0 0 0 0 0

Total # of neighbors = 161346
Ave neighs/atom = 47.806222
Neighbor list builds = 125
Dangerous builds not checked
variable        diff_accum equal ${diff_accum}+${diff_integ}/(3*${loop_iterations})
variable        diff_accum equal 0.182998624225833+${diff_integ}/(3*${loop_iterations})
variable        diff_accum equal 0.182998624225833+0.626380470623045/(3*${loop_iterations})
variable        diff_accum equal 0.182998624225833+0.626380470623045/(3*25)
unfix           fixVACF
write_data      liquid.T${temp}.rho${rho}.data
write_data      liquid.T1.4.rho${rho}.data
write_data      liquid.T1.4.rho0.64.data
System init for write_data ...
print           "" append log.vacf.T${temp}.rho${rho}.txt screen no
print           "" append log.vacf.T1.4.rho${rho}.txt screen no
print           "" append log.vacf.T1.4.rho0.64.txt screen no

next            loop_counter
jump            SELF loop

print           "Diffusivity estimate (GK): ${diff_accum}" append log.vacf.T${temp}.rho${rho}.txt
print           "Diffusivity estimate (GK): ${diff_accum}" append log.vacf.T1.4.rho${rho}.txt
print           "Diffusivity estimate (GK): ${diff_accum}" append log.vacf.T1.4.rho0.64.txt
Diffusivity estimate (GK): 0.19135036383414
Total wall time: 0:03:41
