
variable        mcmoves equal f_montecarlo[1]
variable        mcaccratio equal f_montecarlo[2]/(f_montecarlo[1]+1e-10)

thermo_style	custom step temp etotal press c_p_all v_mcmoves v_mcaccratio

thermo	200

run		${prodlength}
run		20000
WARNING: Fix gcmc is being applied to the default group all (../fix_gcmc.cpp:663)
Per MPI rank memory allocation (min/avg/max) = 2.636 | 2.636 | 2.636 Mbytes
Step Temp TotEng Press c_p_all v_mcmoves v_mcaccratio 
       0    1.4510266   -3.1373573    4.0519796    2.8368226            0            0 
     200    1.4510266   -2.9751883    4.8722959    3.6571389        25000      0.58776 
     400    1.4510266    -3.064059    4.3784894    3.1633324        50000      0.59272 
     600    1.4510266   -3.0643857    4.6033895    3.3882326        75000      0.59356 
     800    1.4510266   -3.0098841    4.6624414    3.4472844       100000      0.59112 
    1000    1.4510266    -2.978169    4.9437224    3.7285654       125000     0.589936 
    1200    1.4510266   -2.9601178    4.8355805    3.6204235       150000   0.58934667 
    1400    1.4510266   -3.1801388    3.9787797    2.7636227       175000   0.58943429 
    1600    1.4510266   -2.8801842    5.4055743    4.1904173       200000      0.58931 
    1800    1.4510266    -2.932638    5.0970704    3.8819135       225000   0.58972444 
    2000    1.4510266   -3.1248517    4.2095634    2.9944065       250000     0.589812 
    2200    1.4510266   -3.1084821    4.1527352    2.9375783       275000   0.58966545 
    2400    1.4510266   -3.3356806    3.1674766    1.9523196       300000      0.59023 
    2600    1.4510266   -3.1694758    4.0078541    2.7926971       325000       0.5902 
    2800    1.4510266   -2.9979754    4.6848257    3.4696687       350000   0.58988571 
    3000    1.4510266   -3.0278245    4.5466511    3.3314941       375000     0.589664 
    3200    1.4510266   -3.2684441    3.5199143    2.3047573       400000    0.5894175 
    3400    1.4510266   -3.1631646    3.7756945    2.5605375       425000   0.58934118 
    3600    1.4510266    -2.904577    5.2189332    4.0037763       450000   0.58913556 
    3800    1.4510266   -2.8003738    5.7380892    4.5229323       475000   0.58906737 
    4000    1.4510266   -3.0695541     4.358377      3.14322       500000      0.58898 
    4200    1.4510266   -3.2963595    3.4361839    2.2210269       525000   0.58927429 
    4400    1.4510266   -3.1948534    3.8662525    2.6510955       550000   0.58906727 
    4600    1.4510266   -3.1227845     4.165097      2.94994       575000    0.5887687 
    4800    1.4510266   -3.1626266    3.8878187    2.6726617       600000     0.588875 
    5000    1.4510266   -3.2189735    3.6274341    2.4122772       625000    0.5892256 
    5200    1.4510266   -3.1912927    3.7657204    2.5505635       650000   0.58956923 
    5400    1.4510266     -3.08026    4.3811105    3.1659536       675000   0.58966815 
    5600    1.4510266   -3.2244886    3.5920327    2.3768757       700000   0.58967143 
    5800    1.4510266   -3.0750986    4.3207219    3.1055649       725000   0.58960552 
    6000    1.4510266   -3.1110465    4.2236037    3.0084467       750000   0.58976933 
    6200    1.4510266   -3.1510139    4.0067785    2.7916215       775000       0.5898 
    6400    1.4510266   -3.1667891    3.9047516    2.6895946       800000    0.5900625 
    6600    1.4510266   -3.1847928    3.9543864    2.7392294       825000   0.59021212 
    6800    1.4510266   -3.0805806    4.4020207    3.1868638       850000   0.59032824 
    7000    1.4510266   -3.2026614    3.8241423    2.6089853       875000   0.59045257 
    7200    1.4510266   -3.0384038    4.6655895    3.4504326       900000   0.59051222 
    7400    1.4510266   -3.0765317    4.4687897    3.2536327       925000   0.59019784 
    7600    1.4510266   -3.1765348    3.8106051    2.5954481       950000   0.59023684 
    7800    1.4510266   -3.1031947    4.1733647    2.9582077       975000   0.59025538 
    8000    1.4510266   -3.2011846    3.8090673    2.5939104      1000000     0.590169 
    8200    1.4510266   -3.1324321    3.9672454    2.7520884      1025000   0.59022341 
    8400    1.4510266   -3.0763658    4.1770954    2.9619385      1050000   0.59025333 
    8600    1.4510266   -3.1163534    4.0626791    2.8475222      1075000    0.5904186 
    8800    1.4510266   -3.1703083    3.9244652    2.7093082      1100000   0.59044727 
    9000    1.4510266   -3.1094915    4.3056934    3.0905364      1125000   0.59041422 
    9200    1.4510266   -2.9204443    4.8653478    3.6501909      1150000   0.59049217 
    9400    1.4510266   -3.1260255    4.1858322    2.9706753      1175000   0.59045106 
    9600    1.4510266   -2.8748279     5.137655    3.9224981      1200000   0.59038083 
    9800    1.4510266   -3.0801345    4.2448816    3.0297247      1225000   0.59061388 
   10000    1.4510266   -3.0133596    4.7849953    3.5698384      1250000       0.5905 
   10200    1.4510266   -2.8693008     5.284398     4.069241      1275000   0.59058196 
   10400    1.4510266   -3.2179963     3.831431     2.616274      1300000   0.59041923 
   10600    1.4510266   -3.0132589    4.7892307    3.5740737      1325000   0.59038113 
   10800    1.4510266    -3.012642    4.6858901    3.4707331      1350000   0.59022963 
   11000    1.4510266    -2.873961    5.1457609     3.930604      1375000   0.59001382 
   11200    1.4510266   -2.8367385    5.5247599    4.3096029      1400000   0.59004429 
   11400    1.4510266    -3.147651    3.9144947    2.6993378      1425000   0.59004491 
   11600    1.4510266   -3.2480101    3.4280902    2.2129332      1450000   0.59009793 
   11800    1.4510266   -3.0404022    4.3896524    3.1744954      1475000   0.59001288 
   12000    1.4510266   -3.1868402    4.0044484    2.7892914      1500000   0.59009467 
   12200    1.4510266   -3.0010185     4.816479     3.601322      1525000   0.59002361 
   12400    1.4510266   -3.1806638    3.8278016    2.6126447      1550000   0.59005484 
   12600    1.4510266   -3.0791451     4.202425     2.987268      1575000   0.59020952 
   12800    1.4510266   -2.9529977    4.9035775    3.6884205      1600000   0.59027562 
   13000    1.4510266   -3.0798491    4.3069611    3.0918041      1625000   0.59030585 
   13200    1.4510266    -3.131096    3.9998195    2.7846625      1650000   0.59046727 
   13400    1.4510266   -3.2828981    3.3919023    2.1767453      1675000   0.59043463 
   13600    1.4510266   -2.9367151     5.098146     3.882989      1700000   0.59047353 
   13800    1.4510266   -3.2450398    3.6086809     2.393524      1725000   0.59048348 
   14000    1.4510266   -3.2551081    3.6882528    2.4730958      1750000   0.59058171 
   14200    1.4510266   -3.2200675    3.6913759    2.4762189      1775000   0.59061408 
   14400    1.4510266   -3.0102535    4.6225753    3.4074183      1800000   0.59056389 
   14600    1.4510266   -2.8892726    5.2887868    4.0736299      1825000   0.59060658 
   14800    1.4510266   -2.8409383    5.3470448    4.1318879      1850000   0.59048865 
   15000    1.4510266   -2.9643637    4.8856281    3.6704712      1875000   0.59044373 
   15200    1.4510266   -3.0933189    4.3201759    3.1050189      1900000      0.59045 
   15400    1.4510266   -2.8747921    5.2405358    4.0253788      1925000   0.59047429 
   15600    1.4510266   -3.1981474    3.7753491    2.5601921      1950000   0.59054769 
   15800    1.4510266   -3.1622816    3.9777776    2.7626206      1975000   0.59059241 
   16000    1.4510266   -3.1363207    4.1516134    2.9364564      2000000     0.590648 
   16200    1.4510266   -2.7852552    5.7248752    4.5097183      2025000   0.59056938 
   16400    1.4510266   -3.0436611    4.6504836    3.4353266      2050000   0.59054098 
   16600    1.4510266   -3.1698672    3.9073779     2.692221      2075000   0.59053783 
   16800    1.4510266   -2.9941159    4.7594061    3.5442491      2100000   0.59050286 
   17000    1.4510266   -3.0184008    4.6218485    3.4066916      2125000   0.59045882 
   17200    1.4510266   -3.0002029     4.880183     3.665026      2150000   0.59050326 
   17400    1.4510266    -3.019633    4.6498235    3.4346666      2175000   0.59049057 
   17600    1.4510266   -3.1440255    4.0444528    2.8292958      2200000   0.59050636 
   17800    1.4510266   -3.2166958    3.6406239     2.425467      2225000   0.59051236 
   18000    1.4510266   -2.9747958    4.8105796    3.5954226      2250000   0.59057244 
   18200    1.4510266   -2.8890153    5.2625984    4.0474415      2275000   0.59043253 
   18400    1.4510266   -3.1196542    4.2784333    3.0632763      2300000      0.59044 
   18600    1.4510266   -3.0047027    4.6990941    3.4839371      2325000    0.5904486 
   18800    1.4510266   -3.1066162    4.3246565    3.1094995      2350000   0.59047277 
   19000    1.4510266   -3.1345021     4.025921     2.810764      2375000   0.59049263 
   19200    1.4510266   -3.4135347    2.8714542    1.6562972      2400000   0.59061417 
   19400    1.4510266   -3.2197404     3.590508     2.375351      2425000   0.59056742 
   19600    1.4510266   -3.2148631    3.8768665    2.6617095      2450000   0.59049061 
   19800    1.4510266   -3.0305699    4.2996871    3.0845302      2475000   0.59049737 
   20000    1.4510266   -3.0882394    4.4458824    3.2307255      2500000    0.5904648 
Loop time of 197.399 on 1 procs for 20000 steps with 125 atoms

Performance: 43769.237 tau/day, 101.318 timesteps/s
99.6% CPU use with 1 MPI tasks x no OpenMP threads

MPI task timing breakdown:
Section |  min time  |  avg time  |  max time  |%varavg| %total
---------------------------------------------------------------
Pair    | 8.1344     | 8.1344     | 8.1344     |   0.0 |  4.12
Neigh   | 17.372     | 17.372     | 17.372     |   0.0 |  8.80
Comm    | 1.1053     | 1.1053     | 1.1053     |   0.0 |  0.56
Output  | 0.0048993  | 0.0048993  | 0.0048993  |   0.0 |  0.00
Modify  | 170.6      | 170.6      | 170.6      |   0.0 | 86.42
Other   |            | 0.182      |            |       |  0.09

Nlocal:        125.000 ave         125 max         125 min
Histogram: 1 0 0 0 0 0 0 0 0 0
Nghost:        1655.00 ave        1655 max        1655 min
Histogram: 1 0 0 0 0 0 0 0 0 0
Neighs:        12003.0 ave       12003 max       12003 min
Histogram: 1 0 0 0 0 0 0 0 0 0

Total # of neighbors = 12003
Ave neighs/atom = 96.024000
Neighbor list builds = 20000
Dangerous builds not checked

variable	p equal f_ave_p

print	"Average virial pressure from MC: $p"
Average virial pressure from MC: 3.14122618821295
Total wall time: 0:04:10
