LAMMPS (29 Sep 2021 - Update 2)
# 3d Lennard-Jones melt

variable    ave_one equal 500
variable    nintervals index 40
variable    mcmaxdispl index 0.1
variable    prodlength equal ${ave_one}*${nintervals}
variable    prodlength equal 500*${nintervals}
variable    prodlength equal 500*40
variable    temperature index 1.4

units		lj
atom_style	atomic

lattice		sc 0.8442
Lattice spacing in x,y,z = 1.0580793 1.0580793 1.0580793
region		box block 0 5 0 5 0 5
create_box	1 box
Created orthogonal box = (0.0000000 0.0000000 0.0000000) to (5.2903965 5.2903965 5.2903965)
  1 by 1 by 1 MPI processor grid
create_atoms	1 box
Created 125 atoms
  using lattice units in orthogonal box = (0.0000000 0.0000000 0.0000000) to (5.2903965 5.2903965 5.2903965)
  create_atoms CPU = 0.000 seconds
mass		1 1.0

velocity	all create 3.0 87287

pair_style	lj/smooth 3.0 3.5
pair_coeff	1 1 1.0 1.0

neighbor	0.3 bin
neigh_modify	every 20 delay 0 check no

fix		1 all nve

thermo		500

thermo_style	custom step temp etotal press
run		2500
Neighbor list info ...
  update every 20 steps, delay 0 steps, check no
  max neighbors/atom: 2000, page size: 100000
  master list distance cutoff = 3.8
  ghost atom cutoff = 3.8
  binsize = 1.9, bins = 3 3 3
  1 neighbor lists, perpetual/occasional/extra = 1 0 0
  (1) pair lj/smooth, perpetual
      attributes: half, newton on
      pair build: half/bin/atomonly/newton
      stencil: half/bin/3d
      bin: standard
Per MPI rank memory allocation (min/avg/max) = 2.635 | 2.635 | 2.635 Mbytes
Step Temp TotEng Press 
       0            3   -1.0476854    3.9138214 
     500    2.3754998   -1.0519801    8.0165648 
    1000    2.3915791   -1.0523855    7.9698354 
    1500    2.3160083   -1.0542784     8.343986 
    2000    2.2641375   -1.0525307    8.5995115 
    2500    2.2041144   -1.0538041    8.9278075 
Loop time of 1.1928 on 1 procs for 2500 steps with 125 atoms

Performance: 905428.806 tau/day, 2095.900 timesteps/s
99.5% CPU use with 1 MPI tasks x no OpenMP threads

MPI task timing breakdown:
Section |  min time  |  avg time  |  max time  |%varavg| %total
---------------------------------------------------------------
Pair    | 1.0199     | 1.0199     | 1.0199     |   0.0 | 85.51
Neigh   | 0.11103    | 0.11103    | 0.11103    |   0.0 |  9.31
Comm    | 0.04658    | 0.04658    | 0.04658    |   0.0 |  3.91
Output  | 0.00014294 | 0.00014294 | 0.00014294 |   0.0 |  0.01
Modify  | 0.007128   | 0.007128   | 0.007128   |   0.0 |  0.60
Other   |            | 0.008016   |            |       |  0.67

Nlocal:        125.000 ave         125 max         125 min
Histogram: 1 0 0 0 0 0 0 0 0 0
Nghost:        1702.00 ave        1702 max        1702 min
Histogram: 1 0 0 0 0 0 0 0 0 0
Neighs:        12022.0 ave       12022 max       12022 min
Histogram: 1 0 0 0 0 0 0 0 0 0

Total # of neighbors = 12022
Ave neighs/atom = 96.176000
Neighbor list builds = 125
Dangerous builds not checked

fix		isokin all temp/rescale 20 ${temperature} ${temperature} 0.02 1.0
fix		isokin all temp/rescale 20 1.4 ${temperature} 0.02 1.0
fix		isokin all temp/rescale 20 1.4 1.4 0.02 1.0

run		50000
Per MPI rank memory allocation (min/avg/max) = 2.636 | 2.636 | 2.636 Mbytes
Step Temp TotEng Press 
    2500    2.2041144   -1.0538041    8.9278075 
    3000          1.4   -3.2310185    4.1156511 
    3500          1.4   -3.1351956    4.3911019 
    4000          1.4   -3.2203102    3.9127687 
    4500          1.4   -3.3727127    3.3046896 
    5000          1.4   -3.3380381    3.4631962 
    5500          1.4   -3.0444869    4.5369262 
    6000          1.4   -3.1973907    3.9136536 
    6500          1.4   -3.1733998     4.440663 
    7000          1.4   -3.1482676    4.4329337 
    7500          1.4   -3.2566602    3.7553486 
    8000          1.4    -3.195089    3.9908795 
    8500          1.4   -3.1373223     4.615527 
    9000          1.4   -3.0152619    5.0120661 
    9500     1.416783   -3.2036088     4.046658 
   10000          1.4   -3.2719229    3.6886426 
   10500          1.4   -2.9962339     5.079866 
   11000          1.4   -3.2459863     3.772104 
   11500          1.4   -3.1857798    4.3991412 
   12000          1.4   -3.0801902    4.7644962 
   12500          1.4   -2.9891725    5.0560704 
   13000          1.4    -2.883374     5.559746 
   13500          1.4   -3.1559017     4.287642 
   14000          1.4   -3.1302962    4.3234239 
   14500    1.3806579   -3.1809681    4.1376309 
   15000          1.4   -3.0789064    4.6469592 
   15500          1.4   -3.3804199    3.2863469 
   16000          1.4   -3.3238754    3.6935854 
   16500          1.4   -2.9932625    5.0477273 
   17000          1.4   -3.1284464    4.4878446 
   17500          1.4   -3.3344209    3.4765362 
   18000          1.4   -3.3524409    3.4080157 
   18500    1.3873318   -3.0665421    5.0614357 
   19000    1.3849544   -3.2315286    3.8518938 
   19500          1.4   -3.0458557    4.6946199 
   20000          1.4   -3.0856847    4.8158898 
   20500    1.4179531   -3.1848805     4.089772 
   21000          1.4   -3.1269972    4.6232157 
   21500          1.4   -3.2786512    3.5677316 
   22000          1.4   -3.1984137    4.0232996 
   22500          1.4   -3.2164588    3.9980499 
   23000    1.3894251   -3.1104006    4.5823991 
   23500    1.3978001   -3.1521811     4.358365 
   24000          1.4   -3.2109692    4.1679869 
   24500          1.4   -3.2850401    3.6960834 
   25000          1.4   -2.9539393    5.5102064 
   25500          1.4   -3.0770585    4.5701108 
   26000          1.4   -3.1269736     4.355623 
   26500          1.4   -3.2439692    3.7503497 
   27000          1.4   -3.2632019    3.8954659 
   27500    1.4059982   -3.3050561    3.4878438 
   28000          1.4   -3.0158735    5.0215743 
   28500          1.4   -3.2293478    3.9544619 
   29000          1.4   -3.0017755     4.988134 
   29500    1.4059829   -3.2240325    4.0040836 
   30000          1.4   -3.2384524    4.1060571 
   30500    1.3900666   -3.1299869    4.3311084 
   31000     1.386871   -3.1648343    4.2987643 
   31500    1.3889164    -2.984499    4.9890195 
   32000          1.4   -3.2192645    4.0432565 
   32500          1.4   -3.2526283    3.6850592 
   33000          1.4   -3.1380557    4.3966243 
   33500          1.4    -3.249746    3.9287419 
   34000          1.4   -3.2920394    3.7038795 
   34500    1.3873697   -3.1257046    4.4134191 
   35000          1.4   -3.0034155    5.1708495 
   35500          1.4   -3.0945136    4.6959057 
   36000          1.4   -3.2506728    3.7218559 
   36500          1.4    -3.142649    4.2641949 
   37000          1.4   -3.0636299    4.7121641 
   37500          1.4   -3.0683893    4.7228932 
   38000          1.4   -3.2239909    4.1485938 
   38500          1.4   -3.2940108    3.6277341 
   39000          1.4    -3.105661    4.5493434 
   39500          1.4   -3.0265726    4.8383922 
   40000          1.4   -3.1374907    4.5419375 
   40500    1.3818619   -3.2561038    3.8756955 
   41000          1.4   -3.2397437    3.8348869 
   41500          1.4   -3.3543738    3.4661367 
   42000     1.406206   -3.2824262    3.5552154 
   42500          1.4   -3.1833812    4.2004548 
   43000          1.4   -3.3506161    3.5717439 
   43500          1.4   -3.2393594    3.8870088 
   44000          1.4   -3.2452161    3.6466331 
   44500    1.3833609   -2.9894546    4.9258514 
   45000          1.4   -3.1034478    4.4840808 
   45500          1.4   -3.2863176    3.8511953 
   46000          1.4   -3.0861951    4.5950393 
   46500          1.4   -3.1434731    4.1938656 
   47000          1.4   -3.1798337    4.2131672 
   47500          1.4   -2.9781215    5.1188941 
   48000          1.4   -3.2077796    3.9055321 
   48500          1.4   -3.1551819    4.2628375 
   49000          1.4   -3.2101181    3.8804009 
   49500          1.4   -3.2668118    3.7314937 
   50000          1.4   -3.0234977    4.7721323 
   50500          1.4   -3.2346409    3.8783968 
   51000          1.4   -3.1082441    4.3654062 
   51500    1.4027757    -3.085875    4.5186618 
   52000    1.4082228   -3.2712564    3.7705827 
   52500    1.3929297   -3.0560497    4.8369158 
Loop time of 23.6872 on 1 procs for 50000 steps with 125 atoms

Performance: 911884.547 tau/day, 2110.844 timesteps/s
99.6% CPU use with 1 MPI tasks x no OpenMP threads

MPI task timing breakdown:
Section |  min time  |  avg time  |  max time  |%varavg| %total
---------------------------------------------------------------
Pair    | 20.227     | 20.227     | 20.227     |   0.0 | 85.39
Neigh   | 2.2055     | 2.2055     | 2.2055     |   0.0 |  9.31
Comm    | 0.9375     | 0.9375     | 0.9375     |   0.0 |  3.96
Output  | 0.002492   | 0.002492   | 0.002492   |   0.0 |  0.01
Modify  | 0.15474    | 0.15474    | 0.15474    |   0.0 |  0.65
Other   |            | 0.1597     |            |       |  0.67

Nlocal:        125.000 ave         125 max         125 min
Histogram: 1 0 0 0 0 0 0 0 0 0
Nghost:        1651.00 ave        1651 max        1651 min
Histogram: 1 0 0 0 0 0 0 0 0 0
Neighs:        12046.0 ave       12046 max       12046 min
Histogram: 1 0 0 0 0 0 0 0 0 0

Total # of neighbors = 12046
Ave neighs/atom = 96.368000
Neighbor list builds = 2500
Dangerous builds not checked

compute	p_all all pressure thermo_temp virial

unfix		isokin

thermo_style	custom step temp etotal press c_p_all
#=====Berendsen MD run====#
reset_timestep	0

fix		ave_p all ave/time ${nintervals} ${ave_one} ${prodlength} c_p_all
fix		ave_p all ave/time 40 ${ave_one} ${prodlength} c_p_all
fix		ave_p all ave/time 40 500 ${prodlength} c_p_all
fix		ave_p all ave/time 40 500 20000 c_p_all
unfix	1
fix		1 all nve
fix		2 all temp/berendsen ${temperature} ${temperature}  0.2
fix		2 all temp/berendsen 1.4 ${temperature}  0.2
fix		2 all temp/berendsen 1.4 1.4  0.2

thermo		200

log		log.berendsen.txt
