ITEM: TIMESTEP
30000
ITEM: NUMBER OF ATOMS
5000
ITEM: BOX BOUNDS pp pp pp
0.0000000000000000e+00 8.0180007035687204e+00
0.0000000000000000e+00 8.0180007035687204e+00
0.0000000000000000e+00 8.0180007035687197e+01
ITEM: ATOMS id type xs ys zs
4 1 0.0200361 0.124062 0.0111737
3 1 0.102617 0.0062768 0.00903599
2 1 0.120447 0.106388 0.000940255
1 1 0.00276144 0.0190892 0.00163379
8 1 0.211181 0.0954468 0.011052
27 1 0.301923 0.193037 0.0106503
6 1 0.309263 0.094836 0.00169847
12 1 0.410693 0.0809224 0.00870672
31 1 0.480867 0.199203 0.01031
16 1 0.600974 0.107489 0.0102251
14 1 0.688166 0.0898004 0.000532674
20 1 0.789146 0.109512 0.0101918
15 1 0.691636 0.00185113 0.0122825
19 1 0.900661 0.0308922 0.0122717
17 1 0.820678 0.0217595 0.00082413
23 1 0.0960623 0.218479 0.0120768
22 1 0.103116 0.31213 0.00279291
28 1 0.208218 0.303401 0.010239
25 1 0.22028 0.200637 0.00062655
32 1 0.406952 0.306925 0.010022
36 1 0.591265 0.297349 0.0101925
33 1 0.583799 0.200096 0.00144608
30 1 0.508039 0.321 0.000609501
35 1 0.698299 0.213994 0.00975277
40 1 0.799933 0.29016 0.0115159
34 1 0.688559 0.306705 0.000586158
21 1 0.992849 0.219112 0.00251766
37 1 0.810467 0.211092 0.000369114
39 1 0.891375 0.212253 0.0110465
24 1 0.98279 0.318334 0.0105712
59 1 0.879694 0.39823 0.0108947
38 1 0.893098 0.318921 0.000630161
43 1 0.10873 0.409694 0.0117191
42 1 0.110812 0.506384 0.00240412
41 1 0.0057857 0.414339 0.000480496
47 1 0.295981 0.404151 0.0111673
48 1 0.200843 0.510598 0.0106105
45 1 0.213805 0.411881 0.000652099
67 1 0.316519 0.592643 0.0116932
46 1 0.302488 0.496252 0.000809688
52 1 0.421414 0.497008 0.0113959
51 1 0.514455 0.414136 0.0116388
71 1 0.509539 0.59034 0.0102557
53 1 0.598053 0.406712 9.15319e-05
49 1 0.415464 0.411685 0.000137598
50 1 0.50469 0.50263 0.000936497
56 1 0.61964 0.513611 0.00978813
55 1 0.68921 0.406154 0.00944568
57 1 0.784823 0.409244 0.00165419
44 1 0.998338 0.469669 0.0112993
60 1 0.800151 0.501308 0.00990069
79 1 0.909279 0.585589 0.00818643
58 1 0.891812 0.489433 0.000399969
63 1 0.0915562 0.609785 0.00896849
68 1 0.196185 0.707435 0.00910809
72 1 0.393824 0.683419 0.00887232
87 1 0.298284 0.799469 0.0101037
66 1 0.295394 0.693283 0.000657721
76 1 0.596709 0.695095 0.0106277
91 1 0.50531 0.793963 0.00970215
75 1 0.705598 0.602264 0.0097798
73 1 0.605852 0.615117 0.00111449
93 1 0.601081 0.787407 0.00162869
80 1 0.809029 0.679843 0.00942773
64 1 0.990965 0.693747 0.00929752
97 1 0.803384 0.790718 0.00316222
197 1 0.810919 0.79976 0.0174973
83 1 0.128797 0.813609 0.00868621
84 1 0.0136564 0.91218 0.0116981
81 1 0.0153563 0.808018 0.000175924
7 1 0.317547 0.992768 0.00931592
9 1 0.397401 0.99331 0.00036586
88 1 0.214466 0.912154 0.00990389
92 1 0.385844 0.892125 0.00880886
11 1 0.516378 0.998428 0.0110686
96 1 0.59841 0.895286 0.0087
90 1 0.492667 0.881491 0.000282623
95 1 0.694825 0.805701 0.0105047
100 1 0.794492 0.91525 0.0106625
94 1 0.710104 0.914475 0.00198631
99 1 0.912402 0.800476 0.0101035
98 1 0.904399 0.905932 0.00213235
102 1 0.109175 0.0804974 0.0196046
104 1 0.00193221 0.114274 0.0295513
101 1 0.00384937 0.0095056 0.0202887
105 1 0.212116 0.0134464 0.0205507
108 1 0.210817 0.112869 0.0305327
106 1 0.307396 0.0983978 0.0199847
112 1 0.390685 0.113075 0.0325162
109 1 0.390664 0.0103124 0.0194164
125 1 0.200053 0.192937 0.0198406
129 1 0.394009 0.196868 0.0204052
110 1 0.475744 0.0981467 0.0214275
116 1 0.574662 0.0936745 0.0303034
131 1 0.499618 0.187623 0.0313265
133 1 0.584175 0.171868 0.0203481
114 1 0.701735 0.121814 0.018439
120 1 0.784301 0.111561 0.0295815
115 1 0.691358 0.00380408 0.0316118
117 1 0.784724 0.0168844 0.0207181
135 1 0.695903 0.198137 0.0292037
118 1 0.895122 0.108941 0.0228752
123 1 0.0969368 0.210925 0.0296421
122 1 0.110744 0.318221 0.0195857
126 1 0.294197 0.288945 0.0206709
127 1 0.302707 0.206479 0.0303626
128 1 0.204448 0.297144 0.0309047
132 1 0.393393 0.309904 0.0317864
147 1 0.297647 0.395926 0.0322817
149 1 0.423301 0.393308 0.0213175
130 1 0.50173 0.281341 0.0210176
136 1 0.599313 0.309624 0.0299285
151 1 0.504484 0.398755 0.0310497
134 1 0.698606 0.315695 0.0194725
140 1 0.79885 0.311037 0.0292656
155 1 0.696862 0.392291 0.0303988
137 1 0.80749 0.201386 0.0201996
124 1 0.975122 0.307225 0.0310536
121 1 0.990264 0.228753 0.0213623
139 1 0.893464 0.204962 0.0317217
138 1 0.885483 0.298937 0.0203401
141 1 0.989809 0.38564 0.0207819
143 1 0.098217 0.420818 0.0312826
142 1 0.110541 0.506784 0.0204353
144 1 0.00954458 0.494415 0.0280312
145 1 0.197597 0.410168 0.0202213
163 1 0.109122 0.599193 0.0297588
165 1 0.199962 0.591684 0.0206578
148 1 0.200816 0.490876 0.0298582
146 1 0.304152 0.50728 0.0217202
152 1 0.38677 0.502793 0.0324786
169 1 0.408405 0.589959 0.0207891
150 1 0.505482 0.505021 0.021684
153 1 0.590228 0.408256 0.0204447
156 1 0.598971 0.517988 0.0311328
154 1 0.691777 0.493239 0.0204856
160 1 0.78851 0.508397 0.0289078
157 1 0.785547 0.411554 0.0210138
159 1 0.885112 0.421881 0.0304825
158 1 0.907251 0.524318 0.0212072
179 1 0.897699 0.599815 0.0303192
177 1 0.80331 0.583591 0.0197337
161 1 0.0208503 0.606268 0.0205691
162 1 0.11115 0.68514 0.0205586
164 1 0.0152014 0.697206 0.0291166
181 1 0.0214425 0.782461 0.0186944
166 1 0.299968 0.698074 0.0210556
167 1 0.298237 0.615228 0.0302021
168 1 0.200354 0.706538 0.0296566
187 1 0.307725 0.788803 0.0297483
171 1 0.505224 0.603464 0.0302901
172 1 0.416015 0.691324 0.0297383
170 1 0.506551 0.685645 0.0198628
176 1 0.593793 0.690693 0.0295133
189 1 0.402334 0.79656 0.0181
191 1 0.507989 0.79175 0.0293372
173 1 0.616457 0.601389 0.0208659
175 1 0.714429 0.613791 0.0298183
174 1 0.712312 0.706629 0.0193076
195 1 0.699609 0.784556 0.0294443
180 1 0.81504 0.715661 0.0293208
178 1 0.901705 0.690059 0.0177718
199 1 0.928401 0.786345 0.0279585
103 1 0.108656 0.99056 0.0289303
183 1 0.119214 0.814854 0.0288713
182 1 0.128384 0.906 0.0198076
184 1 0.00320444 0.885526 0.0271521
185 1 0.205266 0.804365 0.0188748
107 1 0.309698 0.9961 0.0305641
188 1 0.230618 0.909017 0.0286353
186 1 0.320187 0.895844 0.0196162
192 1 0.394883 0.883261 0.0293353
190 1 0.495829 0.902374 0.0197818
113 1 0.597316 0.994164 0.0204617
111 1 0.486938 0.98946 0.029643
196 1 0.592038 0.901369 0.0308471
193 1 0.602861 0.803834 0.020121
194 1 0.705026 0.894 0.0208075
119 1 0.895145 0.992006 0.029753
200 1 0.820391 0.88039 0.0270958
198 1 0.903234 0.900128 0.0189037
202 1 0.102274 0.0959179 0.0405386
208 1 0.187603 0.100729 0.0505537
204 1 0.00342782 0.0965872 0.0503714
223 1 0.0879962 0.19449 0.051254
225 1 0.18735 0.196343 0.0400052
221 1 0.0147208 0.193131 0.0392731
206 1 0.29835 0.0973327 0.0405409
212 1 0.390905 0.101305 0.0501032
205 1 0.206006 0.00162993 0.0395163
210 1 0.487667 0.0912643 0.0413439
216 1 0.59619 0.093747 0.0508812
231 1 0.491243 0.199601 0.0511164
233 1 0.58759 0.192961 0.0407181
213 1 0.5691 0.00235539 0.0408195
214 1 0.676271 0.105707 0.039228
217 1 0.797643 0.0292262 0.0384814
220 1 0.791839 0.0996265 0.0490533
235 1 0.695012 0.183425 0.0484318
218 1 0.922344 0.0872037 0.0393953
222 1 0.0889657 0.312712 0.0411156
228 1 0.179938 0.308827 0.0508744
227 1 0.278117 0.208501 0.0493451
226 1 0.28389 0.304275 0.0413505
232 1 0.391695 0.292566 0.0498096
247 1 0.28392 0.398481 0.051051
229 1 0.404535 0.203955 0.0414779
230 1 0.501849 0.289503 0.0408126
249 1 0.400015 0.392859 0.0415425
237 1 0.789895 0.207427 0.0389283
236 1 0.60072 0.310063 0.0486077
234 1 0.691318 0.292686 0.0396577
240 1 0.79525 0.287715 0.0475341
239 1 0.899284 0.20466 0.0470885
224 1 0.976746 0.298933 0.0500188
238 1 0.887315 0.324708 0.0389587
243 1 0.0864002 0.412347 0.0499596
242 1 0.110212 0.511361 0.0398816
263 1 0.0999971 0.599889 0.0503193
248 1 0.191972 0.500313 0.0490051
245 1 0.205413 0.401622 0.0417551
246 1 0.310279 0.497265 0.0424169
267 1 0.279918 0.596329 0.0520586
252 1 0.405375 0.496827 0.0520505
251 1 0.507049 0.408497 0.048165
250 1 0.485032 0.502423 0.0394055
253 1 0.598956 0.423585 0.0400203
256 1 0.578315 0.520605 0.04943
255 1 0.703215 0.411211 0.04926
254 1 0.695888 0.511501 0.0389571
257 1 0.789448 0.419366 0.039257
260 1 0.792776 0.506979 0.0488306
259 1 0.886678 0.410824 0.0477513
241 1 0.987259 0.405078 0.0392925
244 1 0.98127 0.504586 0.0491211
258 1 0.896311 0.509902 0.0392034
262 1 0.112577 0.714085 0.0382512
265 1 0.193155 0.611078 0.0394313
266 1 0.295436 0.691918 0.0408084
268 1 0.202072 0.689982 0.0496747
269 1 0.380135 0.600203 0.040234
272 1 0.384948 0.708186 0.0511454
289 1 0.380326 0.792742 0.0407598
271 1 0.488391 0.614897 0.0487032
273 1 0.593392 0.608074 0.0394194
270 1 0.507144 0.705483 0.0390637
276 1 0.592935 0.70657 0.0502948
275 1 0.685973 0.608518 0.0483895
277 1 0.793845 0.60477 0.0385145
274 1 0.687295 0.702787 0.0397217
293 1 0.602658 0.799026 0.0402326
295 1 0.689543 0.790419 0.04944
264 1 0.993199 0.729121 0.0498201
261 1 0.997741 0.602444 0.0401445
279 1 0.906026 0.620413 0.0498184
280 1 0.801993 0.697516 0.0484364
278 1 0.911104 0.7081 0.0385613
203 1 0.0927798 0.988352 0.0481713
201 1 0.00230297 0.978651 0.0386062
282 1 0.129971 0.893544 0.0389984
284 1 0.00844621 0.892274 0.04871
281 1 0.0312083 0.803548 0.0376507
283 1 0.125956 0.813426 0.0488597
207 1 0.298835 0.988698 0.0491489
285 1 0.239456 0.80494 0.0400629
287 1 0.298405 0.806069 0.051457
288 1 0.202909 0.909583 0.0498287
286 1 0.317061 0.897893 0.0393305
292 1 0.389153 0.896431 0.0506168
209 1 0.409494 0.995614 0.0414082
211 1 0.492798 0.993081 0.0518861
291 1 0.485392 0.80354 0.0494671
290 1 0.479703 0.886728 0.0392333
215 1 0.703554 0.995332 0.0487692
297 1 0.799283 0.807025 0.0390465
296 1 0.606638 0.900832 0.0488066
294 1 0.696197 0.884399 0.0386339
219 1 0.906664 0.994089 0.049642
300 1 0.810067 0.911961 0.0481535
299 1 0.876653 0.805725 0.0495191
298 1 0.911943 0.873055 0.0396259
302 1 0.103051 0.0837769 0.0598809
323 1 0.0904751 0.175385 0.0686801
306 1 0.294026 0.109751 0.0605511
309 1 0.384476 0.00207328 0.0601943
312 1 0.410583 0.0987738 0.0687848
310 1 0.499509 0.0952449 0.0588133
316 1 0.598655 0.109733 0.0685544
311 1 0.506187 0.0155756 0.0679515
314 1 0.707578 0.103643 0.059825
320 1 0.797825 0.0918153 0.0692338
335 1 0.707754 0.192924 0.0689185
318 1 0.890829 0.0789893 0.0577085
301 1 0.997845 0.00416661 0.0592759
321 1 0.97681 0.172968 0.0599816
337 1 0.804098 0.194543 0.0582474
339 1 0.876577 0.186781 0.0696031
325 1 0.1947 0.200087 0.0603818
322 1 0.107039 0.294842 0.0616264
328 1 0.19585 0.278706 0.0696463
345 1 0.18678 0.393831 0.0607507
326 1 0.296104 0.287885 0.0593837
329 1 0.393777 0.201181 0.0588431
332 1 0.398897 0.293591 0.0681128
349 1 0.394003 0.392287 0.0605022
333 1 0.598663 0.204706 0.0599079
330 1 0.508797 0.309009 0.0593346
331 1 0.50397 0.207745 0.0691661
336 1 0.624293 0.284455 0.0682396
334 1 0.698697 0.293744 0.0571809
355 1 0.686558 0.395097 0.0669123
340 1 0.772672 0.313427 0.0695469
357 1 0.796097 0.392391 0.0578078
324 1 0.990846 0.26577 0.0694666
338 1 0.897468 0.293609 0.0607698
341 1 0.980294 0.397621 0.0579696
343 1 0.101151 0.420522 0.0690662
342 1 0.108073 0.505439 0.0594306
363 1 0.0936903 0.593308 0.0694251
346 1 0.288186 0.493394 0.0602489
348 1 0.210995 0.523783 0.0684837
350 1 0.507538 0.502115 0.0603974
351 1 0.486041 0.401259 0.0696763
356 1 0.579656 0.496512 0.0699712
353 1 0.608171 0.409631 0.0578012
354 1 0.689341 0.507187 0.0580721
377 1 0.788063 0.595538 0.0583318
360 1 0.791157 0.506797 0.0682811
344 1 0.99121 0.510851 0.0661261
359 1 0.885682 0.40139 0.0673733
358 1 0.889464 0.505 0.0577462
362 1 0.107694 0.711092 0.0599093
364 1 0.00522194 0.71535 0.0695151
365 1 0.182737 0.615865 0.0595576
366 1 0.291661 0.697779 0.0611784
369 1 0.387574 0.610272 0.0583234
372 1 0.404649 0.699934 0.0677508
370 1 0.498172 0.712336 0.0574431
373 1 0.595169 0.612131 0.0585336
376 1 0.599336 0.711297 0.0695694
374 1 0.696627 0.685923 0.0585927
397 1 0.779733 0.789699 0.0590586
393 1 0.613575 0.798338 0.0598423
375 1 0.690758 0.601744 0.0693832
380 1 0.785735 0.689068 0.0695712
361 1 0.988163 0.62471 0.0589244
378 1 0.895317 0.720869 0.0591462
379 1 0.888479 0.609308 0.0678768
381 1 0.0137226 0.803839 0.058701
382 1 0.0989593 0.919984 0.0595613
385 1 0.189951 0.80735 0.0609269
383 1 0.0925296 0.813263 0.0691822
305 1 0.206406 0.999778 0.0595622
387 1 0.302125 0.809177 0.0688859
388 1 0.207683 0.901496 0.0695437
386 1 0.299764 0.909937 0.0611259
389 1 0.394721 0.807387 0.0601059
390 1 0.524593 0.890055 0.0597468
313 1 0.606697 0.991465 0.0611496
317 1 0.788353 0.996971 0.0582
394 1 0.69703 0.909565 0.0599003
315 1 0.715144 0.998524 0.0696837
395 1 0.703193 0.803493 0.069533
400 1 0.796229 0.893209 0.0677524
319 1 0.882508 0.981144 0.0698605
399 1 0.892467 0.802838 0.0691271
398 1 0.914664 0.904959 0.0590424
308 1 0.18574 0.0994541 0.0716156
402 1 0.085441 0.113204 0.0806438
425 1 0.185821 0.19563 0.0809916
307 1 0.292908 0.0212663 0.0702353
406 1 0.295108 0.0952898 0.0803745
405 1 0.200913 0.011504 0.0808579
409 1 0.387433 0.0130961 0.0791845
410 1 0.500432 0.094885 0.0795124
414 1 0.699177 0.0870927 0.0787957
433 1 0.615699 0.188397 0.0782287
437 1 0.786631 0.18799 0.0822883
304 1 0.969562 0.0998399 0.0705549
401 1 0.986675 0.0102521 0.0803644
418 1 0.880811 0.102843 0.0810928
421 1 0.978613 0.187253 0.0789526
422 1 0.0774954 0.307093 0.078629
445 1 0.168373 0.381786 0.0791614
327 1 0.303346 0.20249 0.0711946
347 1 0.313098 0.38103 0.0703157
426 1 0.293006 0.313136 0.0812088
429 1 0.378874 0.214088 0.0808743
430 1 0.478593 0.298979 0.077601
453 1 0.580401 0.372425 0.0815993
431 1 0.501396 0.210113 0.0861328
434 1 0.683243 0.306089 0.0819383
457 1 0.80096 0.397316 0.0781085
438 1 0.907929 0.293615 0.0789484
441 1 0.990145 0.385116 0.0734067
442 1 0.0868522 0.494984 0.0798481
461 1 0.00674928 0.598995 0.0787657
465 1 0.185006 0.599052 0.0797854
352 1 0.396323 0.515986 0.0707368
449 1 0.386975 0.404459 0.0809909
446 1 0.288702 0.486376 0.0785142
450 1 0.494007 0.515997 0.0796934
454 1 0.669669 0.486111 0.0777597
458 1 0.918005 0.505018 0.0769813
477 1 0.816011 0.591778 0.0781083
368 1 0.18738 0.698437 0.0702452
462 1 0.0929418 0.705474 0.0786248
367 1 0.296646 0.616481 0.0705004
466 1 0.293252 0.720906 0.0789809
469 1 0.388976 0.616893 0.0810419
371 1 0.480136 0.611144 0.0710577
470 1 0.479243 0.709936 0.0802882
473 1 0.59003 0.625744 0.0788551
474 1 0.704323 0.689635 0.0799054
493 1 0.617227 0.789757 0.0798881
478 1 0.887343 0.693072 0.0780857
303 1 0.105405 0.995696 0.0702532
481 1 0.00712869 0.80159 0.0803826
482 1 0.0844941 0.910039 0.0796957
485 1 0.188698 0.808343 0.0792625
486 1 0.28936 0.91611 0.0806737
489 1 0.389402 0.810867 0.0783302
391 1 0.488611 0.806318 0.0702213
392 1 0.410055 0.92085 0.0704056
490 1 0.495431 0.917471 0.0798086
396 1 0.599911 0.884574 0.0712523
413 1 0.604349 0.999344 0.0779233
494 1 0.690591 0.895665 0.0807816
384 1 0.986242 0.901822 0.0704032
417 1 0.805494 0.99355 0.0805761
497 1 0.812221 0.817856 0.0796576
498 1 0.909478 0.894704 0.0802079
502 1 0.0983207 0.0983535 0.101366
403 1 0.0905133 0.0224389 0.0888516
408 1 0.189549 0.10958 0.0908129
505 1 0.180433 0.0127877 0.099564
423 1 0.086585 0.196846 0.0907372
525 1 0.195825 0.188284 0.102093
506 1 0.279568 0.0887223 0.100734
407 1 0.294982 0.000911169 0.0911453
529 1 0.395647 0.196668 0.0992083
416 1 0.592814 0.106102 0.0894319
412 1 0.405162 0.089184 0.0906546
510 1 0.508744 0.0998403 0.102126
533 1 0.606476 0.196667 0.102486
514 1 0.689934 0.100276 0.0993457
415 1 0.682632 0.00039042 0.0910488
420 1 0.788686 0.0856651 0.0904598
537 1 0.798541 0.191062 0.0998033
404 1 0.986399 0.0999624 0.0890111
518 1 0.887272 0.0939517 0.101708
419 1 0.889838 0.00163296 0.0913167
521 1 0.991895 0.176023 0.10035
439 1 0.895445 0.188048 0.0909435
424 1 0.00158819 0.311776 0.0907447
428 1 0.190693 0.303176 0.0900787
522 1 0.099013 0.306166 0.0994501
443 1 0.101536 0.394726 0.0895486
545 1 0.183603 0.398477 0.100056
427 1 0.2936 0.202295 0.091257
526 1 0.294217 0.298755 0.098183
549 1 0.392369 0.399482 0.0988134
432 1 0.415436 0.303372 0.0904765
530 1 0.482258 0.314051 0.101408
436 1 0.584941 0.304478 0.0917878
435 1 0.699202 0.209891 0.0911758
534 1 0.687746 0.301088 0.100854
440 1 0.792007 0.306558 0.0882307
538 1 0.890209 0.302034 0.0990432
557 1 0.806588 0.395268 0.0984792
541 1 0.00016657 0.407223 0.0998074
542 1 0.0868595 0.497161 0.0981299
448 1 0.192538 0.518852 0.0898522
447 1 0.278887 0.418446 0.0896137
546 1 0.268603 0.507677 0.0998397
452 1 0.395722 0.502877 0.090669
451 1 0.49728 0.427852 0.090493
550 1 0.495291 0.513847 0.100142
553 1 0.580846 0.403917 0.100341
456 1 0.597828 0.511399 0.0884929
455 1 0.695211 0.411462 0.0882953
554 1 0.684275 0.47884 0.0991435
460 1 0.784075 0.486973 0.0895901
573 1 0.601105 0.589806 0.100402
577 1 0.78983 0.594147 0.0997959
459 1 0.889739 0.40172 0.0887792
444 1 0.995173 0.497793 0.0906664
558 1 0.903257 0.50872 0.0981499
479 1 0.90154 0.596652 0.0884227
561 1 0.00577874 0.602848 0.0976414
463 1 0.0947779 0.6241 0.0892152
562 1 0.101079 0.709945 0.098553
565 1 0.194564 0.620733 0.0988809
467 1 0.290544 0.604998 0.0899851
468 1 0.202384 0.697763 0.0890396
566 1 0.29574 0.729472 0.101489
569 1 0.375991 0.631266 0.100472
472 1 0.38764 0.724818 0.0896635
471 1 0.482084 0.614499 0.0894765
570 1 0.48446 0.715919 0.0979979
476 1 0.597878 0.702678 0.0890424
475 1 0.69268 0.600285 0.087887
574 1 0.697314 0.704602 0.0998438
480 1 0.797294 0.685435 0.0882517
495 1 0.717552 0.79014 0.0904073
464 1 0.996371 0.711407 0.0894493
578 1 0.888 0.693236 0.0990553
499 1 0.904323 0.797562 0.0901617
501 1 0.0085448 0.999891 0.103209
585 1 0.193228 0.815851 0.0989291
483 1 0.117584 0.80826 0.0894222
582 1 0.0926508 0.916808 0.0964507
488 1 0.197432 0.925417 0.0904378
509 1 0.386922 0.987035 0.0994339
487 1 0.297382 0.815541 0.089511
586 1 0.296704 0.898554 0.0991832
589 1 0.393235 0.80382 0.0999542
492 1 0.393142 0.913182 0.0882005
411 1 0.492129 0.986003 0.0902021
513 1 0.581852 0.99833 0.0992568
491 1 0.483118 0.82074 0.0883001
590 1 0.486158 0.893742 0.0999675
496 1 0.584276 0.899363 0.089555
517 1 0.793795 0.994185 0.100761
593 1 0.601287 0.802219 0.0978365
594 1 0.695809 0.893249 0.098303
597 1 0.792945 0.810751 0.100666
581 1 0.992836 0.803799 0.0997776
484 1 0.981136 0.90244 0.0905126
500 1 0.807959 0.899169 0.0909372
598 1 0.901399 0.904027 0.100626
602 1 0.0955815 0.110539 0.122022
503 1 0.0979751 0.0118817 0.112631
508 1 0.187443 0.093737 0.110628
625 1 0.188113 0.192891 0.119475
606 1 0.300455 0.0859257 0.118065
527 1 0.296448 0.175946 0.109586
629 1 0.383672 0.195317 0.119253
512 1 0.40671 0.0943407 0.108855
610 1 0.477269 0.100175 0.119253
613 1 0.595494 0.0144156 0.119545
633 1 0.586768 0.192292 0.11871
516 1 0.62814 0.0885723 0.109539
614 1 0.707781 0.0826998 0.119594
520 1 0.785991 0.078163 0.109387
535 1 0.700905 0.181293 0.110706
504 1 0.987006 0.0869109 0.112578
618 1 0.885864 0.106867 0.118874
617 1 0.807942 0.0033713 0.120823
523 1 0.0941838 0.201748 0.109664
622 1 0.110195 0.313081 0.118746
524 1 0.00229885 0.31586 0.111595
528 1 0.205676 0.316501 0.111036
626 1 0.304338 0.306359 0.12021
532 1 0.392665 0.313937 0.110483
531 1 0.484603 0.210077 0.110049
630 1 0.486577 0.296709 0.119629
536 1 0.583541 0.300138 0.110488
634 1 0.700432 0.300441 0.117943
540 1 0.792932 0.321655 0.110548
621 1 0.989085 0.206811 0.11827
637 1 0.805223 0.209335 0.117898
539 1 0.894712 0.233486 0.109752
638 1 0.879145 0.309105 0.120654
543 1 0.0934361 0.420208 0.109698
642 1 0.0882394 0.516993 0.119272
645 1 0.201708 0.410505 0.119815
547 1 0.295068 0.40678 0.108233
649 1 0.382273 0.435855 0.119571
548 1 0.201125 0.50326 0.111205
646 1 0.286496 0.525091 0.120708
552 1 0.381076 0.515367 0.106253
653 1 0.589345 0.402784 0.118294
551 1 0.500347 0.40422 0.108962
650 1 0.487852 0.513815 0.117538
673 1 0.58284 0.596174 0.119316
657 1 0.779434 0.418613 0.121003
556 1 0.603285 0.515074 0.109806
555 1 0.694566 0.408526 0.110087
654 1 0.677771 0.514952 0.120205
560 1 0.779818 0.513316 0.108744
641 1 0.990712 0.417844 0.118466
544 1 0.978985 0.517216 0.110563
559 1 0.906212 0.408988 0.108763
658 1 0.890311 0.515994 0.120881
563 1 0.104293 0.617523 0.108326
662 1 0.0950145 0.715086 0.118587
665 1 0.188722 0.612743 0.12057
568 1 0.194149 0.718736 0.109721
567 1 0.267593 0.61621 0.110579
666 1 0.289581 0.703435 0.121302
669 1 0.374753 0.616668 0.117066
572 1 0.390816 0.721095 0.110146
571 1 0.474058 0.619171 0.10852
670 1 0.486149 0.712881 0.119694
591 1 0.510655 0.796531 0.108581
575 1 0.687015 0.617784 0.110968
576 1 0.610958 0.714452 0.108811
674 1 0.7093 0.711202 0.12023
677 1 0.796547 0.612449 0.11886
580 1 0.79419 0.714796 0.10895
693 1 0.605873 0.791822 0.118526
579 1 0.895668 0.609749 0.108525
661 1 0.978945 0.627433 0.121268
564 1 0.994261 0.704549 0.108076
678 1 0.888757 0.721394 0.120636
685 1 0.182795 0.813086 0.120984
583 1 0.0798917 0.805609 0.109639
681 1 0.00104406 0.807318 0.121879
682 1 0.0924076 0.901207 0.119032
588 1 0.169059 0.920087 0.108508
507 1 0.301858 0.978363 0.110329
605 1 0.206985 0.990966 0.120569
587 1 0.283589 0.813393 0.110634
686 1 0.291083 0.893841 0.121485
689 1 0.386005 0.807254 0.121575
609 1 0.404097 0.998536 0.119716
592 1 0.406588 0.899335 0.109876
511 1 0.495289 0.991401 0.109969
690 1 0.508623 0.901759 0.119888
596 1 0.5913 0.893141 0.107002
515 1 0.688591 0.972447 0.109315
595 1 0.697168 0.814097 0.109948
697 1 0.787976 0.814271 0.12218
694 1 0.707708 0.915062 0.12015
601 1 0.979799 0.988716 0.121474
519 1 0.892526 0.996139 0.109935
584 1 0.985715 0.901521 0.111841
599 1 0.909043 0.801802 0.110936
600 1 0.807391 0.898332 0.110804
698 1 0.891594 0.898496 0.121851
702 1 0.104371 0.104571 0.139021
705 1 0.19516 0.0157198 0.137881
725 1 0.19742 0.190189 0.139543
608 1 0.217242 0.102016 0.130233
607 1 0.30675 0.0116107 0.131349
612 1 0.390721 0.102901 0.129384
706 1 0.309313 0.115978 0.13925
631 1 0.484785 0.189637 0.12836
710 1 0.492225 0.100597 0.138073
616 1 0.586409 0.0981857 0.128656
714 1 0.700983 0.0974616 0.138622
635 1 0.690354 0.191651 0.128382
615 1 0.687706 0.00270273 0.130397
620 1 0.79694 0.101433 0.129991
604 1 0.978065 0.0952633 0.129814
619 1 0.887825 0.00525563 0.132939
639 1 0.887423 0.195698 0.129947
623 1 0.0900447 0.204787 0.1293
721 1 0.00786974 0.214245 0.138963
628 1 0.193167 0.29238 0.129382
745 1 0.184055 0.388799 0.139644
722 1 0.0784222 0.317086 0.138183
627 1 0.294699 0.211793 0.129098
632 1 0.37495 0.308896 0.130682
730 1 0.493066 0.313289 0.136912
733 1 0.580196 0.204504 0.137318
729 1 0.40295 0.213071 0.13809
636 1 0.605232 0.297624 0.126959
734 1 0.677315 0.297461 0.138864
640 1 0.77818 0.313931 0.129709
737 1 0.777744 0.216435 0.139194
624 1 0.997007 0.30861 0.12643
643 1 0.0888766 0.412059 0.1282
644 1 0.00454463 0.521706 0.129196
648 1 0.182025 0.504535 0.129851
742 1 0.0887188 0.502538 0.138315
647 1 0.295953 0.41222 0.129248
746 1 0.297243 0.511403 0.140052
652 1 0.38655 0.518748 0.130526
749 1 0.389204 0.407205 0.139338
651 1 0.48903 0.414439 0.129357
750 1 0.49663 0.513105 0.137924
656 1 0.592557 0.508258 0.12845
753 1 0.582063 0.405042 0.137842
655 1 0.686816 0.402013 0.128692
754 1 0.706494 0.501859 0.138758
757 1 0.792062 0.402922 0.138967
659 1 0.908567 0.400534 0.130365
660 1 0.803188 0.525688 0.129109
758 1 0.907038 0.520034 0.138257
663 1 0.093169 0.605892 0.129078
664 1 0.0129543 0.707251 0.130981
668 1 0.185847 0.703408 0.129715
667 1 0.286867 0.610334 0.12998
766 1 0.285036 0.692897 0.139529
769 1 0.398915 0.611412 0.138889
672 1 0.39645 0.701435 0.128302
789 1 0.383143 0.779149 0.139461
773 1 0.577398 0.603246 0.13758
671 1 0.478955 0.608151 0.127336
676 1 0.586451 0.696534 0.128075
691 1 0.489412 0.795288 0.130133
675 1 0.709303 0.614692 0.130031
774 1 0.683959 0.718547 0.139019
680 1 0.793162 0.728748 0.131775
679 1 0.881686 0.629529 0.130866
778 1 0.90463 0.711187 0.139867
603 1 0.0880637 0.986603 0.129268
683 1 0.0915724 0.823252 0.130867
688 1 0.193881 0.90884 0.131078
687 1 0.278189 0.803613 0.132536
692 1 0.386363 0.897015 0.132706
709 1 0.403644 0.999059 0.14012
611 1 0.479568 0.998825 0.129709
790 1 0.48902 0.899055 0.140336
713 1 0.579047 0.998303 0.138746
695 1 0.679008 0.804866 0.129184
696 1 0.604831 0.90479 0.130318
700 1 0.790455 0.918767 0.129856
684 1 0.972887 0.908357 0.13285
699 1 0.87769 0.820039 0.131647
708 1 0.199852 0.0990939 0.148138
825 1 0.204997 0.199279 0.157248
712 1 0.411412 0.0990665 0.151417
711 1 0.506057 0.00817882 0.149159
717 1 0.797346 0.0113482 0.141759
716 1 0.607009 0.112054 0.149962
715 1 0.69072 0.0188568 0.151836
720 1 0.779485 0.118187 0.151878
718 1 0.877588 0.143394 0.141153
701 1 0.997391 0.018467 0.142315
704 1 0.979771 0.11707 0.149521
719 1 0.881516 0.0130562 0.149941
723 1 0.0832621 0.204011 0.148066
728 1 0.186043 0.304064 0.148426
726 1 0.289175 0.326584 0.140648
727 1 0.31199 0.206018 0.148787
826 1 0.302125 0.309708 0.157273
731 1 0.502223 0.200243 0.148882
732 1 0.40672 0.300074 0.148076
736 1 0.587016 0.315986 0.148905
735 1 0.701639 0.223221 0.148859
740 1 0.798284 0.309263 0.148356
739 1 0.881422 0.218024 0.153099
724 1 0.998082 0.296098 0.149835
738 1 0.9075 0.305669 0.140541
759 1 0.905173 0.39124 0.151802
743 1 0.0794915 0.425304 0.149794
748 1 0.195848 0.496769 0.148945
763 1 0.0887697 0.591826 0.149707
747 1 0.300385 0.422495 0.149423
767 1 0.287008 0.595051 0.150495
751 1 0.478452 0.410861 0.14774
752 1 0.406613 0.523875 0.15032
777 1 0.793139 0.596029 0.141353
756 1 0.602252 0.506532 0.149097
755 1 0.696908 0.413821 0.147946
760 1 0.784074 0.493898 0.149438
877 1 0.780782 0.598303 0.15754
741 1 0.989325 0.408018 0.141421
744 1 0.967672 0.516687 0.149559
765 1 0.178684 0.605933 0.14046
762 1 0.0921488 0.707782 0.140645
768 1 0.191007 0.699829 0.15014
781 1 0.00645016 0.796616 0.140355
783 1 0.0936415 0.789245 0.150138
772 1 0.397501 0.697469 0.149255
787 1 0.292301 0.784197 0.148561
770 1 0.497538 0.710909 0.140745
771 1 0.508153 0.608576 0.148505
791 1 0.496335 0.798661 0.150766
775 1 0.682961 0.619186 0.147217
776 1 0.608973 0.719407 0.149738
780 1 0.789803 0.716714 0.149622
761 1 0.987621 0.61497 0.141094
764 1 0.998526 0.705377 0.150785
779 1 0.882998 0.622102 0.150052
782 1 0.107547 0.9089 0.14039
785 1 0.175381 0.807529 0.140546
703 1 0.107894 0.997942 0.149977
788 1 0.194406 0.889376 0.151036
784 1 0.0163726 0.898781 0.150033
707 1 0.275894 0.994446 0.14953
786 1 0.289736 0.895231 0.141842
792 1 0.386158 0.908844 0.149106
793 1 0.594522 0.832708 0.142003
796 1 0.597338 0.92277 0.15159
794 1 0.692374 0.941135 0.140597
797 1 0.794226 0.825152 0.140834
795 1 0.704423 0.809656 0.149019
800 1 0.777044 0.918128 0.150679
798 1 0.88232 0.922888 0.14155
799 1 0.897705 0.808027 0.148855
802 1 0.110995 0.119632 0.158449
803 1 0.0872717 0.00807648 0.16996
804 1 0.00659915 0.106407 0.170695
823 1 0.103705 0.193778 0.172692
801 1 0.004654 0.01985 0.158572
805 1 0.18397 0.0122067 0.160811
808 1 0.215042 0.120036 0.170152
806 1 0.29348 0.0893867 0.158134
812 1 0.38655 0.11 0.168562
809 1 0.384013 0.00106767 0.160189
810 1 0.517862 0.117922 0.159031
813 1 0.577219 0.0110372 0.16066
816 1 0.587133 0.104278 0.170497
831 1 0.499871 0.196304 0.170845
811 1 0.482116 0.0241824 0.168956
814 1 0.695288 0.108434 0.160974
815 1 0.690207 0.00694688 0.172456
820 1 0.789826 0.125286 0.168918
817 1 0.794009 0.0125927 0.162103
818 1 0.907467 0.104845 0.161472
819 1 0.900951 0.0120598 0.171768
821 1 0.00981498 0.21302 0.159517
822 1 0.116417 0.305801 0.158918
828 1 0.186379 0.304676 0.170636
824 1 0.00364093 0.283575 0.170947
843 1 0.0869957 0.393527 0.168081
845 1 0.211017 0.392345 0.158889
827 1 0.300739 0.228208 0.169147
829 1 0.399051 0.21641 0.158232
832 1 0.40273 0.322885 0.169287
830 1 0.495003 0.298354 0.158637
836 1 0.564325 0.31336 0.169422
837 1 0.764589 0.223623 0.160165
833 1 0.605593 0.221404 0.158085
835 1 0.678784 0.220263 0.169658
834 1 0.688479 0.337796 0.159743
840 1 0.781813 0.300471 0.170539
838 1 0.923649 0.308534 0.16193
839 1 0.899471 0.206375 0.170285
857 1 0.806465 0.383393 0.160739
842 1 0.0934091 0.498503 0.15984
844 1 0.000816563 0.522956 0.169198
848 1 0.197776 0.48644 0.169657
847 1 0.301663 0.400622 0.168859
846 1 0.282289 0.510304 0.159791
852 1 0.389733 0.49985 0.168903
849 1 0.399919 0.410792 0.158666
851 1 0.488867 0.416751 0.168419
850 1 0.496605 0.496803 0.158365
853 1 0.584672 0.405548 0.159388
856 1 0.575449 0.504522 0.170096
855 1 0.644328 0.40431 0.170288
854 1 0.692483 0.48305 0.160979
875 1 0.686638 0.596426 0.170224
860 1 0.795786 0.521223 0.168456
841 1 0.990213 0.426569 0.160303
859 1 0.885692 0.420898 0.170315
858 1 0.873218 0.52068 0.15859
865 1 0.18324 0.618184 0.159927
863 1 0.110133 0.610347 0.169967
862 1 0.0977419 0.705721 0.159494
864 1 0.0230652 0.689948 0.170469
868 1 0.193262 0.704404 0.168741
867 1 0.299117 0.603898 0.169151
866 1 0.287345 0.70314 0.159112
872 1 0.377306 0.738043 0.16839
869 1 0.396345 0.615187 0.161798
873 1 0.588518 0.601059 0.160877
871 1 0.501265 0.615102 0.169873
870 1 0.499497 0.692141 0.158741
876 1 0.605638 0.709014 0.169475
874 1 0.690146 0.706108 0.159342
879 1 0.889562 0.618316 0.169083
878 1 0.900468 0.708589 0.159208
880 1 0.809654 0.720442 0.168959
861 1 0.996972 0.620135 0.161148
885 1 0.186382 0.803532 0.160038
883 1 0.0688848 0.815678 0.170475
882 1 0.0881339 0.913468 0.160597
888 1 0.181887 0.909005 0.169484
889 1 0.366205 0.817524 0.158073
887 1 0.268188 0.816768 0.16974
807 1 0.280135 0.994631 0.170758
886 1 0.275465 0.909547 0.159985
892 1 0.380746 0.909401 0.168001
891 1 0.488712 0.819922 0.165566
890 1 0.481707 0.911477 0.15829
896 1 0.576124 0.918244 0.1683
893 1 0.606703 0.823092 0.160671
895 1 0.706527 0.803291 0.169552
894 1 0.69165 0.91083 0.161328
881 1 0.987589 0.816415 0.159226
884 1 0.994155 0.920492 0.170531
897 1 0.8142 0.829102 0.158514
899 1 0.920757 0.806778 0.169377
900 1 0.832853 0.897668 0.170194
898 1 0.916722 0.912435 0.158504
902 1 0.0908776 0.0981119 0.182469
923 1 0.106427 0.199709 0.191065
905 1 0.188173 0.0127625 0.181297
908 1 0.201362 0.125304 0.189478
906 1 0.314796 0.118224 0.179277
907 1 0.289228 0.0167745 0.189584
912 1 0.378534 0.112543 0.189749
910 1 0.494404 0.0804329 0.179188