ITEM: TIMESTEP
50000
ITEM: NUMBER OF ATOMS
5000
ITEM: BOX BOUNDS pp pp pp
0.0000000000000000e+00 8.0180007035687204e+00
0.0000000000000000e+00 8.0180007035687204e+00
0.0000000000000000e+00 8.0180007035687197e+01
ITEM: ATOMS id type xs ys zs
4 1 0.0300225 0.0451596 0.00782843
23 1 0.141792 0.14697 0.00757482
21 1 0.0430324 0.155916 0.000574231
8 1 0.220317 0.0585633 0.00736585
27 1 0.306863 0.170574 0.0087232
106 1 0.316643 0.0739519 0.0171584
12 1 0.422668 0.0733597 0.00826071
31 1 0.532712 0.153865 0.00765327
129 1 0.423636 0.183963 0.0141456
110 1 0.519369 0.0482022 0.0156508
16 1 0.632039 0.0749882 0.00799978
35 1 0.744635 0.168907 0.007646
133 1 0.641611 0.17933 0.0175025
20 1 0.839922 0.0646039 0.00794442
39 1 0.931364 0.15494 0.00729924
24 1 0.0157701 0.269125 0.007539
141 1 0.013816 0.373617 0.0149091
43 1 0.128101 0.351424 0.0061603
122 1 0.12056 0.261905 0.0159217
28 1 0.224056 0.267287 0.00675041
47 1 0.336583 0.383021 0.00660143
145 1 0.221997 0.378681 0.0171108
126 1 0.317501 0.28153 0.0164288
32 1 0.422834 0.294704 0.0062139
51 1 0.508825 0.391155 0.00843448
149 1 0.408924 0.386475 0.016522
130 1 0.51038 0.264173 0.0156884
36 1 0.637335 0.27894 0.00890754
55 1 0.738559 0.374578 0.00659261
134 1 0.738074 0.277224 0.0167596
153 1 0.623539 0.37342 0.0174174
40 1 0.834115 0.256212 0.00802173
59 1 0.923088 0.355828 0.00537464
157 1 0.839636 0.358829 0.0155507
138 1 0.940565 0.262857 0.0171939
63 1 0.117942 0.565433 0.00655117
44 1 0.0168236 0.466969 0.00743646
142 1 0.134654 0.464053 0.0150119
161 1 0.0370496 0.570622 0.0156144
48 1 0.22518 0.464642 0.00488998
165 1 0.21009 0.578023 0.0155956
146 1 0.309467 0.497753 0.0153052
52 1 0.431014 0.495686 0.00687166
71 1 0.550103 0.554889 0.00728111
169 1 0.445826 0.582409 0.0145405
56 1 0.651089 0.463934 0.00783962
75 1 0.73763 0.567983 0.00856339
154 1 0.739548 0.46057 0.0167626
60 1 0.82939 0.465808 0.00809152
79 1 0.939872 0.557483 0.00810536
177 1 0.841868 0.566428 0.0155706
64 1 0.00778528 0.675185 0.00798441
83 1 0.133633 0.777815 0.00676712
162 1 0.121179 0.663297 0.0147566
181 1 0.0340446 0.763717 0.0172959
67 1 0.330071 0.60759 0.00622382
68 1 0.204717 0.664952 0.00627323
87 1 0.326154 0.777328 0.00781718
166 1 0.335301 0.685991 0.0160201
72 1 0.42971 0.699308 0.00640697
91 1 0.534085 0.781472 0.00596127
170 1 0.499676 0.709828 0.0166166
76 1 0.639628 0.654202 0.00731455
193 1 0.618904 0.781205 0.0153952
95 1 0.745201 0.782742 0.00743025
174 1 0.732005 0.684699 0.0158722
80 1 0.833217 0.683073 0.00817373
197 1 0.826474 0.77967 0.0168032
99 1 0.926883 0.783448 0.00746641
178 1 0.925753 0.683582 0.0172351
3 1 0.125709 0.948227 0.00671234
84 1 0.0193459 0.862649 0.00647906
182 1 0.12149 0.863904 0.0160609
7 1 0.321762 0.979781 0.00770834
88 1 0.242539 0.873511 0.00522045
92 1 0.425927 0.846416 0.00738919
11 1 0.500096 0.946568 0.00908415
190 1 0.527896 0.851351 0.016083
96 1 0.636663 0.875705 0.00648361
15 1 0.748025 0.982146 0.00738584
113 1 0.6189 0.954386 0.0170872
194 1 0.727046 0.863762 0.0170915
19 1 0.920055 0.961726 0.00730749
100 1 0.826013 0.876735 0.00870832
198 1 0.951302 0.874595 0.016892
102 1 0.116444 0.0827318 0.0184076
104 1 0.0299394 0.0850618 0.0268691
123 1 0.124827 0.185189 0.0256843
121 1 0.0222252 0.163511 0.0176418
108 1 0.227335 0.0752117 0.0259474
125 1 0.215347 0.179591 0.0176518
127 1 0.314338 0.187419 0.0249209
225 1 0.217412 0.181232 0.0331862
112 1 0.41916 0.0575699 0.0265412
131 1 0.510372 0.138786 0.0260185
116 1 0.635913 0.0577789 0.0251969
114 1 0.736336 0.0714802 0.0180248
135 1 0.726648 0.181666 0.0265342
214 1 0.725589 0.0792506 0.0337319
233 1 0.620286 0.155483 0.0334988
120 1 0.84177 0.0669806 0.0290695
137 1 0.851401 0.167489 0.0178995
118 1 0.936644 0.0747248 0.0179496
139 1 0.920035 0.172677 0.0278762
124 1 0.0247174 0.272237 0.0258949
143 1 0.118077 0.373641 0.0254689
128 1 0.20978 0.283539 0.0260327
147 1 0.323285 0.373269 0.0265772
226 1 0.314135 0.27955 0.0342469
245 1 0.225919 0.390101 0.0334365
132 1 0.418124 0.264254 0.0253961
151 1 0.516289 0.363735 0.0256597
249 1 0.435009 0.371211 0.0344883
136 1 0.605334 0.257708 0.0262095
155 1 0.726062 0.379664 0.0262549
253 1 0.618855 0.382299 0.0347608
140 1 0.823605 0.275917 0.0286046
159 1 0.925413 0.38437 0.0266972
144 1 0.0230935 0.475637 0.0257944
163 1 0.12347 0.583433 0.0274101
148 1 0.21724 0.484144 0.0246209
167 1 0.329926 0.595352 0.0250821
152 1 0.389325 0.477691 0.0250726
150 1 0.514744 0.481827 0.0182133
171 1 0.519524 0.598703 0.0258202
269 1 0.421306 0.597178 0.0346444
250 1 0.520719 0.491448 0.0338672
173 1 0.640101 0.57387 0.017914
156 1 0.622877 0.478397 0.0259751
175 1 0.744984 0.557875 0.0243503
273 1 0.648411 0.582429 0.034066
160 1 0.830261 0.475969 0.0265394
158 1 0.937525 0.474866 0.0178733
179 1 0.933327 0.578659 0.0262231
183 1 0.133301 0.775761 0.0278197
164 1 0.0293252 0.680189 0.0279316
168 1 0.240522 0.680852 0.0263633
187 1 0.308207 0.798218 0.030116
185 1 0.219729 0.771821 0.0185681
172 1 0.408357 0.705449 0.0279997
191 1 0.511276 0.776715 0.0281133
189 1 0.404138 0.785916 0.0191458
176 1 0.6329 0.700113 0.0247387
195 1 0.736217 0.776544 0.0265206
180 1 0.807995 0.677451 0.0242004
199 1 0.931644 0.775801 0.0279299
101 1 0.0493422 0.966499 0.0179837
103 1 0.137255 0.988004 0.0288139
184 1 0.0534791 0.871583 0.0268361
105 1 0.22055 0.967944 0.0175895
107 1 0.333541 0.970837 0.0273748
188 1 0.209258 0.88021 0.0289546
186 1 0.305468 0.864255 0.0191265
109 1 0.427448 0.96579 0.0184836
111 1 0.532982 0.977574 0.0266711
192 1 0.425788 0.888782 0.0288018
115 1 0.717446 0.967401 0.0268875
196 1 0.631551 0.865345 0.0270183
200 1 0.839662 0.867338 0.0280339
117 1 0.810591 0.966739 0.0188268
119 1 0.942919 0.960198 0.0270266
202 1 0.111937 0.0944063 0.0363768
204 1 0.0329786 0.0867825 0.0478869
221 1 0.0267822 0.181966 0.0373672
208 1 0.222326 0.0942872 0.0451337
206 1 0.322583 0.0735323 0.0375039
212 1 0.447771 0.0655748 0.0480613
210 1 0.526534 0.0478284 0.0381017
231 1 0.541604 0.166609 0.0450441
229 1 0.428873 0.174984 0.0351031
216 1 0.638696 0.0775239 0.0437667
235 1 0.714911 0.176034 0.045361
237 1 0.828536 0.186129 0.0362806
220 1 0.816849 0.0688635 0.0424015
218 1 0.951639 0.0691335 0.0383881
239 1 0.917987 0.177686 0.0466918
318 1 0.899217 0.0540134 0.0516522
223 1 0.134442 0.208598 0.0443874
222 1 0.129909 0.302325 0.0371108
224 1 0.0262586 0.294169 0.0468917
243 1 0.134839 0.386312 0.0471638
241 1 0.0298532 0.391286 0.0366889
227 1 0.316959 0.209746 0.0454434
228 1 0.246452 0.309533 0.0446508
232 1 0.444916 0.282053 0.0452563
230 1 0.542805 0.253162 0.0360756
251 1 0.520045 0.392883 0.0440703
236 1 0.609041 0.297937 0.045473
234 1 0.710276 0.261691 0.0368595
255 1 0.719598 0.371683 0.0430088
240 1 0.845118 0.290173 0.0446221
238 1 0.939736 0.277297 0.0367157
259 1 0.93241 0.370793 0.0447564
257 1 0.841918 0.387405 0.0357912
242 1 0.126245 0.459817 0.0365638
244 1 0.0419574 0.484408 0.0449312
261 1 0.035016 0.565454 0.0358745
263 1 0.141968 0.584088 0.0472389
247 1 0.333 0.401062 0.0426567
248 1 0.235632 0.473564 0.0461144
246 1 0.314921 0.502181 0.0355616
267 1 0.343544 0.580413 0.0461998
265 1 0.218514 0.587651 0.0361732
252 1 0.435293 0.497615 0.0441652
271 1 0.539936 0.578122 0.0430473
254 1 0.746722 0.472016 0.0355334
256 1 0.637155 0.478058 0.042761
275 1 0.734787 0.579952 0.0442076
260 1 0.81045 0.471742 0.0466638
258 1 0.930328 0.485232 0.0377405
277 1 0.844802 0.579739 0.035687
279 1 0.933426 0.589166 0.04604
358 1 0.911488 0.475029 0.0524892
262 1 0.122798 0.6863 0.0358024
264 1 0.0443561 0.688525 0.0455353
283 1 0.133938 0.765864 0.0502612
281 1 0.0284065 0.776264 0.0375645
268 1 0.220488 0.683886 0.0452246
266 1 0.318926 0.678622 0.0368463
287 1 0.347484 0.776775 0.0474456
285 1 0.220013 0.799341 0.0397413
272 1 0.465185 0.653466 0.0488082
270 1 0.553291 0.669681 0.0356816
289 1 0.447664 0.759537 0.0402818
291 1 0.543872 0.784063 0.0498807
276 1 0.664885 0.681544 0.0446332
274 1 0.761098 0.690308 0.0359128
293 1 0.617448 0.772984 0.0369456
297 1 0.842444 0.792028 0.0375377
280 1 0.845092 0.680519 0.0468556
278 1 0.933143 0.672367 0.0357079
300 1 0.940968 0.779609 0.0481373
203 1 0.120906 0.986411 0.045992
282 1 0.113432 0.871683 0.0376348
201 1 0.0342001 0.976592 0.0372305
284 1 0.0304868 0.872495 0.0478992
207 1 0.304256 0.986044 0.0482742
288 1 0.203059 0.88657 0.051983
205 1 0.217318 0.996189 0.0380425
286 1 0.307143 0.894174 0.0394237
290 1 0.510667 0.859902 0.0393154
211 1 0.520419 0.956273 0.0491062
292 1 0.442344 0.859131 0.0508711
209 1 0.430854 0.952521 0.0407342
295 1 0.733974 0.82353 0.047185
213 1 0.631235 0.965501 0.0381643
296 1 0.615362 0.870029 0.0469803
215 1 0.756822 0.960185 0.0463154
294 1 0.733276 0.871513 0.0358547
217 1 0.835923 0.955049 0.0377471
219 1 0.870283 0.891742 0.0516526
298 1 0.95339 0.866677 0.0356076
302 1 0.137195 0.12564 0.0543664
321 1 0.0254904 0.192068 0.0545034
405 1 0.0862092 0.0098319 0.0670413
306 1 0.327366 0.100859 0.0541348
325 1 0.245645 0.192011 0.0550473
308 1 0.224699 0.104211 0.0664254
307 1 0.322159 0.0206252 0.0659946
305 1 0.225952 0.0113586 0.0567717
327 1 0.344425 0.174648 0.0636846
312 1 0.449215 0.0632921 0.0635518
310 1 0.57266 0.0632148 0.0542646
329 1 0.434879 0.186505 0.0553086
331 1 0.512714 0.183232 0.0654639
316 1 0.607747 0.0942139 0.0662937
314 1 0.726152 0.0863823 0.0535061
333 1 0.615994 0.19068 0.05648
335 1 0.705394 0.170871 0.0645864
304 1 0.988217 0.107131 0.0623936
320 1 0.853042 0.107273 0.0639779
337 1 0.827489 0.190151 0.0548327
323 1 0.116349 0.207618 0.0644794
322 1 0.149334 0.300268 0.0551388
324 1 0.0489977 0.307079 0.0622442
328 1 0.248642 0.275472 0.0664696
326 1 0.348592 0.295211 0.0542513
347 1 0.349897 0.399932 0.0649456
345 1 0.263201 0.386199 0.0567938
332 1 0.446666 0.294791 0.0659979
330 1 0.52379 0.287172 0.0546838
351 1 0.560871 0.389744 0.0651792
336 1 0.60149 0.279165 0.0663113
334 1 0.717126 0.266242 0.0547286
355 1 0.679272 0.374207 0.0636158
357 1 0.790324 0.389619 0.0557005
339 1 0.923591 0.215463 0.0666013
340 1 0.822667 0.2805 0.0632008
338 1 0.920808 0.296133 0.0560147
359 1 0.937747 0.383835 0.0657429
341 1 0.0316018 0.414741 0.0557851
343 1 0.124665 0.405593 0.0671665
342 1 0.153431 0.488708 0.0571069
441 1 0.0616665 0.509448 0.0655167
361 1 0.0405989 0.595722 0.0531257
346 1 0.328645 0.488962 0.0546116
365 1 0.263091 0.584457 0.058999
348 1 0.23702 0.481747 0.065557
349 1 0.451035 0.401858 0.0548261
369 1 0.423916 0.566245 0.0564892
352 1 0.450318 0.472432 0.0660987
350 1 0.543772 0.512508 0.0532746
371 1 0.518968 0.596019 0.0660957
353 1 0.606482 0.402649 0.0534362
356 1 0.644573 0.498881 0.0670355
354 1 0.708147 0.477213 0.0536253
373 1 0.648684 0.577424 0.0569191
375 1 0.75288 0.534911 0.0649495
377 1 0.830741 0.565365 0.0555723
379 1 0.945074 0.591948 0.0637795
360 1 0.875805 0.493231 0.0695207
299 1 0.0376898 0.747566 0.0570806
362 1 0.142101 0.656294 0.0575775
364 1 0.0580857 0.6399 0.0662341
482 1 0.160846 0.753651 0.0653842
383 1 0.254017 0.669171 0.0683687
366 1 0.344911 0.666186 0.0544023
385 1 0.251152 0.787193 0.0577635
387 1 0.347493 0.775175 0.0671433
372 1 0.397416 0.65412 0.0667777
389 1 0.42711 0.749651 0.0573831
370 1 0.570705 0.66597 0.0546496
391 1 0.542914 0.750116 0.0656263
393 1 0.644901 0.760133 0.056929
376 1 0.667852 0.6614 0.0656582
374 1 0.747851 0.664771 0.0556068
395 1 0.739378 0.762869 0.0667388
380 1 0.833113 0.647206 0.0674082
397 1 0.836653 0.776047 0.0556818
378 1 0.932122 0.682654 0.0558626
400 1 0.87451 0.780713 0.0686364
381 1 0.044247 0.809495 0.0697154
301 1 0.0250251 0.984622 0.0563223
382 1 0.0905437 0.869666 0.0600126
388 1 0.224592 0.871544 0.0682973
386 1 0.315386 0.896203 0.060283
309 1 0.398887 0.985944 0.0559918
311 1 0.532888 0.950588 0.0609401
390 1 0.437333 0.869909 0.0640469
315 1 0.70115 0.992588 0.0666432
313 1 0.640011 0.957782 0.0543829
396 1 0.630815 0.872859 0.0642723
394 1 0.754199 0.86775 0.0599599
317 1 0.790609 0.995864 0.0585705
319 1 0.916432 0.994907 0.0622516
398 1 0.948251 0.843927 0.0605817
402 1 0.151975 0.0692706 0.077361
417 1 0.047486 0.141091 0.0728328
406 1 0.336792 0.0943308 0.076657
425 1 0.214843 0.197412 0.0766486
412 1 0.426253 0.0928132 0.0858401
410 1 0.505835 0.0900831 0.0739425
431 1 0.555451 0.140741 0.0853915
414 1 0.710683 0.0785797 0.0754016
433 1 0.630742 0.197629 0.0756612
437 1 0.78995 0.188643 0.072574
420 1 0.729428 0.170846 0.0858297
303 1 0.971176 0.0447873 0.0731449
439 1 0.884054 0.135121 0.0779418
581 1 0.991772 0.0736387 0.0874755
421 1 0.0723833 0.228841 0.0824982
422 1 0.140221 0.293399 0.0728983
427 1 0.313867 0.22819 0.0859354
428 1 0.218424 0.321029 0.0825348
426 1 0.337628 0.308303 0.0754827
429 1 0.405169 0.206665 0.0745254
430 1 0.51858 0.250905 0.0765629
449 1 0.446643 0.374585 0.076258
451 1 0.536861 0.371464 0.0857969
453 1 0.613702 0.359743 0.0760145
434 1 0.723533 0.298904 0.0730408
436 1 0.619884 0.282643 0.0861642
456 1 0.717459 0.38386 0.0872659
438 1 0.874299 0.278154 0.0761031
440 1 0.814416 0.299916 0.0871799
459 1 0.964177 0.354116 0.0859541
538 1 0.992881 0.30733 0.0746488
363 1 0.160924 0.561361 0.071887
424 1 0.021281 0.437334 0.0786376
442 1 0.153434 0.461737 0.080379
344 1 0.0477832 0.562482 0.07751
367 1 0.343361 0.544369 0.0718006
445 1 0.272888 0.408971 0.0757513
465 1 0.250674 0.528788 0.0798807
448 1 0.383282 0.470576 0.0807405
546 1 0.337239 0.592858 0.0862171
469 1 0.451499 0.581253 0.0789808
450 1 0.540294 0.484949 0.0780059
473 1 0.669544 0.480048 0.0791891
454 1 0.760146 0.429883 0.0721535
477 1 0.792144 0.497052 0.0850597
470 1 0.608441 0.591032 0.0754049
474 1 0.753632 0.597388 0.0774869
457 1 0.869946 0.410411 0.0796417
458 1 0.942216 0.49659 0.0867312
462 1 0.122129 0.701374 0.0774377
468 1 0.0847489 0.610642 0.0874626
368 1 0.322128 0.697345 0.0783566
485 1 0.211987 0.791018 0.0794422
463 1 0.217303 0.650244 0.0852933
466 1 0.416019 0.702302 0.0860836
489 1 0.459889 0.787836 0.0740245
491 1 0.522185 0.68986 0.0785921
493 1 0.62482 0.741297 0.0744082
476 1 0.645261 0.672709 0.0857994
495 1 0.741341 0.744474 0.0812738
399 1 0.965967 0.695563 0.0719321
461 1 0.904217 0.612374 0.0774705
497 1 0.864811 0.738405 0.0818088
478 1 0.984875 0.712486 0.0854787
401 1 0.135191 0.925717 0.0846395
403 1 0.0106069 0.946819 0.0836569
392 1 0.345756 0.906559 0.0723789
408 1 0.391741 0.966956 0.0832891
486 1 0.216299 0.963342 0.0757872
488 1 0.273675 0.91068 0.0851682
487 1 0.372496 0.818269 0.0815554
409 1 0.458713 0.971659 0.0723611
490 1 0.533197 0.891127 0.0750161
413 1 0.602197 0.995883 0.0765816
494 1 0.673642 0.878261 0.0763864
500 1 0.733655 0.979655 0.0827363
499 1 0.792436 0.865072 0.0795676
597 1 0.617309 0.819091 0.0856011
384 1 0.992087 0.921885 0.0702595
418 1 0.874567 0.999069 0.0815552
481 1 0.969938 0.830965 0.0797608
498 1 0.823762 0.949881 0.0709692
621 1 0.182857 0.0255862 0.0892874
523 1 0.106991 0.124007 0.0918374
618 1 0.0495742 0.110137 0.10518
600 1 0.0422821 0.00715192 0.096482
584 1 0.16136 0.189233 0.101978
423 1 0.265828 0.12259 0.0884434
525 1 0.335617 0.0183986 0.0939672
527 1 0.378905 0.17951 0.0975305
529 1 0.248787 0.0815172 0.100894
510 1 0.530447 0.0851596 0.0981086
416 1 0.657677 0.166528 0.0979113
419 1 0.752216 0.00397799 0.0966588
415 1 0.660793 0.0589634 0.0895256
518 1 0.819044 0.0971611 0.0887679
698 1 0.943899 0.141122 0.0993802
502 1 0.0485918 0.231188 0.0970272
528 1 0.171065 0.33821 0.101927
522 1 0.0994127 0.345713 0.0915899
524 1 0.0211266 0.379422 0.102057
622 1 0.178432 0.240417 0.0907168
447 1 0.330146 0.358887 0.0883458
526 1 0.27703 0.265266 0.0977574
549 1 0.313486 0.377216 0.103026
516 1 0.548356 0.330862 0.0981924
432 1 0.443752 0.236474 0.0884954
530 1 0.413269 0.300969 0.0989169
535 1 0.513684 0.215534 0.103021
435 1 0.678594 0.291676 0.0972602
540 1 0.787615 0.331591 0.102642
620 1 0.797318 0.207219 0.0986664
404 1 0.947355 0.220677 0.0895363
539 1 0.92717 0.286502 0.0998671
443 1 0.196384 0.432919 0.0926872
541 1 0.123286 0.55886 0.0989423
444 1 0.0742393 0.460246 0.0904063
452 1 0.359278 0.485058 0.0932101
569 1 0.24165 0.548641 0.0939703
668 1 0.305707 0.501783 0.104645
471 1 0.562072 0.573922 0.0883655
446 1 0.455914 0.593866 0.0964693
550 1 0.473935 0.468974 0.0906649
649 1 0.424458 0.437171 0.103838
556 1 0.533447 0.50897 0.100722
475 1 0.692817 0.54978 0.089903
553 1 0.611532 0.45873 0.0939356
653 1 0.718178 0.442851 0.0997862
560 1 0.649 0.538429 0.102746
534 1 0.878493 0.421631 0.0945386
557 1 0.9833 0.53178 0.0992179
554 1 0.839654 0.537299 0.0972766
565 1 0.194591 0.691376 0.101074
562 1 0.035947 0.703995 0.0971353
599 1 0.117273 0.797452 0.103094
585 1 0.143097 0.737058 0.0894732
547 1 0.358155 0.665482 0.0988396
467 1 0.286664 0.758083 0.0909104
586 1 0.277892 0.792974 0.102847
472 1 0.414665 0.782658 0.0963344
573 1 0.570056 0.624279 0.0997222
570 1 0.547497 0.73072 0.0930796
572 1 0.466501 0.699331 0.105167
593 1 0.664045 0.782032 0.0978766
677 1 0.703289 0.660202 0.09682
479 1 0.912314 0.637324 0.0957327
460 1 0.824209 0.604129 0.0881617
574 1 0.941071 0.775423 0.0964245
480 1 0.845531 0.703402 0.10304
484 1 0.800557 0.778943 0.0924757
483 1 0.0473401 0.831352 0.0908215
661 1 0.144624 0.990269 0.10413
589 1 0.204818 0.852981 0.094297
587 1 0.353978 0.890341 0.0953007
503 1 0.260935 0.952932 0.101574
411 1 0.512089 0.994848 0.087865
407 1 0.441307 0.979146 0.098336
492 1 0.485616 0.86436 0.0886691
590 1 0.555222 0.847516 0.0994632
513 1 0.624948 0.966023 0.100874
496 1 0.618081 0.933919 0.0884211
594 1 0.730721 0.880106 0.0912075
639 1 0.903441 0.985278 0.0945999
577 1 0.986362 0.895435 0.101366
501 1 0.897022 0.872551 0.0892419
578 1 0.824191 0.850583 0.104721
602 1 0.16925 0.087006 0.112479
619 1 0.0564885 0.100631 0.120832
508 1 0.355664 0.0370116 0.106295
506 1 0.357263 0.122884 0.116775
505 1 0.240249 0.184639 0.11813
605 1 0.27361 0.0273494 0.116354
531 1 0.455248 0.122112 0.109023
616 1 0.598821 0.00552575 0.112492
611 1 0.498677 0.08755 0.121316
514 1 0.706117 0.0751096 0.10608
511 1 0.600916 0.128349 0.11127
676 1 0.745084 0.0288677 0.120844
697 1 0.733813 0.181698 0.111146
515 1 0.82821 0.110898 0.107129
617 1 0.942013 0.0390122 0.106634
638 1 0.974186 0.158786 0.116114
737 1 0.830928 0.159131 0.121625
718 1 0.97929 0.00431164 0.121091
614 1 0.88367 0.0542955 0.117348
626 1 0.119742 0.339896 0.113659
601 1 0.114331 0.216272 0.11382
533 1 0.366133 0.23452 0.108115
625 1 0.217434 0.297229 0.121771
512 1 0.34858 0.31864 0.120135
623 1 0.242306 0.284208 0.110097
630 1 0.467747 0.343439 0.11102
631 1 0.520354 0.2181 0.115612
733 1 0.494521 0.325631 0.122554
610 1 0.652335 0.207721 0.120803
520 1 0.703103 0.350454 0.112198
633 1 0.608161 0.274365 0.108073
635 1 0.613603 0.3537 0.121601
759 1 0.764911 0.271216 0.120153
537 1 0.858499 0.237458 0.111001
521 1 0.963595 0.318012 0.11235
738 1 0.86075 0.379167 0.120861
739 1 0.912748 0.262601 0.122563
545 1 0.119423 0.459597 0.10555
464 1 0.0528554 0.586825 0.110235
641 1 0.117642 0.542708 0.119912
543 1 0.196594 0.560147 0.108774
629 1 0.382207 0.42738 0.116348
532 1 0.223986 0.423906 0.112254
624 1 0.245156 0.546847 0.119408
646 1 0.384636 0.541038 0.121953
536 1 0.583941 0.40465 0.107351
552 1 0.414863 0.57174 0.109486
636 1 0.52741 0.477738 0.118948
455 1 0.781534 0.449283 0.113837
576 1 0.691486 0.590211 0.116343
654 1 0.656977 0.478826 0.113871
579 1 0.773246 0.596819 0.106619
558 1 0.9042 0.588954 0.109803
559 1 0.883951 0.463454 0.106013
658 1 0.987682 0.471016 0.113214
679 1 0.872054 0.521323 0.119641
567 1 0.988444 0.583743 0.120846
542 1 0.155252 0.659925 0.113429
688 1 0.0868368 0.722097 0.122508
566 1 0.2033 0.771128 0.111102
563 1 0.288702 0.647351 0.110465
689 1 0.334696 0.773019 0.112974
568 1 0.340242 0.669575 0.121971
591 1 0.570737 0.758476 0.107378
551 1 0.469091 0.628786 0.120132
575 1 0.561884 0.604219 0.112004
571 1 0.471638 0.759043 0.116905
642 1 0.745059 0.756538 0.109759
694 1 0.616657 0.69459 0.117922
693 1 0.753117 0.704373 0.120909
678 1 0.991933 0.694344 0.109506
683 1 0.860856 0.78709 0.114669
644 1 0.894442 0.664551 0.119582
680 1 0.978547 0.778536 0.12198
643 1 0.0493457 0.827011 0.112322
582 1 0.197716 0.894352 0.11249
519 1 0.0467987 0.95674 0.11052
681 1 0.111734 0.98441 0.120787
507 1 0.318837 0.904434 0.113529
588 1 0.245241 0.825762 0.122585
670 1 0.432076 0.854842 0.106713
509 1 0.469878 0.975204 0.110963
606 1 0.401952 0.993008 0.122414
672 1 0.443378 0.888283 0.119484
691 1 0.556787 0.88553 0.111428
671 1 0.544837 0.832637 0.122789
598 1 0.650229 0.811445 0.118658
580 1 0.690401 0.889255 0.108562
684 1 0.769353 0.862699 0.11897
613 1 0.652371 0.929298 0.121689
517 1 0.8004 0.97459 0.107527
583 1 0.926115 0.897626 0.114147
608 1 0.154731 0.196752 0.12884
821 1 0.0615987 0.0863601 0.132888
604 1 0.00238261 0.189794 0.129398
782 1 0.190244 0.0792984 0.125321
705 1 0.248723 0.0356163 0.138174
706 1 0.342934 0.0908359 0.13036
632 1 0.391413 0.196871 0.139641
592 1 0.47193 0.10775 0.133824
692 1 0.438213 0.194567 0.124364
690 1 0.577246 0.0189698 0.135452
714 1 0.627641 0.0728862 0.124782
719 1 0.742808 0.114018 0.132742
710 1 0.623503 0.134112 0.137009
637 1 0.939157 0.0972986 0.127707
640 1 0.84297 0.178168 0.133844
702 1 0.952453 0.126329 0.13958
802 1 0.0414699 0.299914 0.123325
841 1 0.0597082 0.271471 0.136224
721 1 0.205339 0.339701 0.133986
628 1 0.279218 0.223352 0.130252
648 1 0.314643 0.375456 0.139041
647 1 0.440518 0.330891 0.133798
731 1 0.544851 0.249102 0.134468
657 1 0.742052 0.392284 0.125505
609 1 0.692726 0.227883 0.132041
735 1 0.645768 0.337685 0.135466
741 1 0.971886 0.390248 0.128047
720 1 0.823343 0.310427 0.13203
740 1 0.953702 0.298476 0.138481
548 1 0.0387168 0.495978 0.128481
742 1 0.162821 0.435348 0.124163
724 1 0.0991971 0.400507 0.137384
665 1 0.294123 0.428834 0.126609
749 1 0.214019 0.478717 0.135638
746 1 0.298396 0.591305 0.130207
651 1 0.39503 0.467173 0.13361
734 1 0.53232 0.42369 0.133095
652 1 0.510917 0.569337 0.130063
555 1 0.761271 0.557839 0.126039
634 1 0.657855 0.48135 0.126479
777 1 0.744047 0.458195 0.136312
675 1 0.627747 0.523868 0.139773
757 1 0.868 0.456224 0.130964
664 1 0.965348 0.549669 0.13667
645 1 0.0865582 0.621878 0.13009
544 1 0.170656 0.667673 0.136685
762 1 0.0788685 0.764568 0.135076
685 1 0.299405 0.764383 0.133977
662 1 0.217263 0.670465 0.124372
673 1 0.399645 0.630515 0.136694
656 1 0.516312 0.659404 0.139382
561 1 0.41749 0.791532 0.128228
674 1 0.516803 0.713395 0.127756
660 1 0.633028 0.623154 0.127469
878 1 0.736786 0.673057 0.133117
793 1 0.644058 0.758067 0.131366
659 1 0.884678 0.613169 0.131308
761 1 0.983507 0.6916 0.133083
797 1 0.856489 0.7421 0.130605
564 1 0.133234 0.843138 0.127665
682 1 0.130781 0.966094 0.133977
700 1 0.00136687 0.891699 0.128532
686 1 0.345367 0.901634 0.128016
805 1 0.219972 0.943327 0.125786
701 1 0.247293 0.884146 0.135616
687 1 0.376965 0.866149 0.14011
596 1 0.54221 0.974058 0.124572
607 1 0.488846 0.893205 0.134281
786 1 0.408034 0.99318 0.136559
595 1 0.737383 0.842319 0.133836
615 1 0.621661 0.884733 0.13209
794 1 0.712522 0.98139 0.132508
695 1 0.867611 0.983585 0.130478
781 1 0.959579 0.985842 0.140048
800 1 0.850166 0.857082 0.139354
778 1 0.875715 0.856358 0.125648
798 1 0.954945 0.805322 0.136665
504 1 0.0925603 0.158892 0.143898
603 1 0.115214 0.0133295 0.145824
884 1 0.108941 0.0946431 0.154131
729 1 0.351058 0.0789536 0.144251
703 1 0.243527 0.0308623 0.154432
745 1 0.387296 0.174973 0.152576
712 1 0.236087 0.164457 0.156839
711 1 0.49911 0.173996 0.147146
792 1 0.485077 0.0504652 0.145616
872 1 0.412369 0.00429659 0.154175
717 1 0.757952 0.165041 0.145331
716 1 0.626709 0.13413 0.152774
715 1 0.757617 0.061991 0.153048
713 1 0.653472 0.021006 0.146668
801 1 0.989941 0.0083723 0.153613
837 1 0.854545 0.0487232 0.142179
836 1 0.802113 0.195224 0.157512
814 1 0.900395 0.121704 0.151672
708 1 0.097776 0.221291 0.156069
627 1 0.199679 0.214222 0.141245
725 1 0.172792 0.330979 0.146092
859 1 0.0394236 0.324883 0.146991
612 1 0.282304 0.255098 0.150164
728 1 0.398896 0.295254 0.147129
846 1 0.316771 0.398596 0.152823
730 1 0.518132 0.319917 0.147553
747 1 0.53654 0.230397 0.157493
732 1 0.642344 0.251514 0.145169
853 1 0.689966 0.291151 0.157642
736 1 0.669515 0.383315 0.147741
834 1 0.755675 0.293332 0.142364
818 1 0.985695 0.21509 0.147587
855 1 0.854785 0.397447 0.141331
760 1 0.931728 0.379623 0.152995
921 1 0.876667 0.27429 0.147659
840 1 0.803774 0.342774 0.15739
766 1 0.0877259 0.519045 0.140629
722 1 0.193219 0.453438 0.148804
857 1 0.0561563 0.443511 0.151942
977 1 0.0792372 0.561345 0.154972
663 1 0.217295 0.575947 0.150001
763 1 0.330265 0.527266 0.14284
765 1 0.313012 0.521055 0.157118
655 1 0.553592 0.440511 0.146028
773 1 0.546084 0.5966 0.149387
750 1 0.42994 0.417028 0.144917
769 1 0.476882 0.534367 0.14178
869 1 0.473378 0.489177 0.155841
754 1 0.621946 0.507302 0.154338
775 1 0.750564 0.589178 0.141441
755 1 0.740198 0.4812 0.149575
758 1 0.982505 0.437472 0.141257
877 1 0.863086 0.524215 0.141453
854 1 0.979563 0.553603 0.149579
953 1 0.856411 0.478436 0.155213
785 1 0.0557498 0.64986 0.144395
862 1 0.155804 0.776509 0.14519
861 1 0.136633 0.691933 0.155127
881 1 0.0376452 0.757698 0.149557
667 1 0.293539 0.674646 0.143079
787 1 0.266781 0.698502 0.155872
669 1 0.55566 0.775633 0.14046
650 1 0.404152 0.741271 0.140379
767 1 0.400419 0.606316 0.1506
666 1 0.486054 0.696127 0.151854
789 1 0.652579 0.649599 0.142389
774 1 0.757833 0.735504 0.143906
696 1 0.660273 0.765369 0.15102
873 1 0.702186 0.617993 0.154016
764 1 0.90576 0.700697 0.142853
799 1 0.823267 0.636884 0.150441
895 1 0.942266 0.667788 0.155025
899 1 0.862344 0.785369 0.150918
783 1 0.190973 0.916123 0.146603
788 1 0.0602187 0.903406 0.154562
880 1 0.144835 0.816938 0.157277
699 1 0.0716899 0.878223 0.142754
779 1 0.281139 0.803502 0.146695
790 1 0.399074 0.805097 0.155759
809 1 0.310664 0.954842 0.144848
883 1 0.295814 0.870253 0.157755
870 1 0.483851 0.86178 0.148482
890 1 0.553642 0.975897 0.153858
704 1 0.778903 0.953078 0.142341
709 1 0.622267 0.89205 0.148558
900 1 0.785349 0.890894 0.153308
817 1 0.870994 0.995541 0.153905
898 1 0.936136 0.893597 0.148616
807 1 0.0729397 0.0114208 0.164757
939 1 0.151734 0.13475 0.166639
838 1 0.00518525 0.125618 0.160344
707 1 0.355777 0.0729635 0.162539
889 1 0.345481 0.0736752 0.175373
829 1 0.280217 0.174064 0.168125
888 1 0.234888 0.0452479 0.1678
831 1 0.541023 0.17284 0.16855
806 1 0.409468 0.170374 0.169217
813 1 0.489286 0.091713 0.158685
909 1 0.447381 0.0304164 0.169187
994 1 0.594709 0.0421182 0.162446
894 1 0.709877 0.184587 0.165792
897 1 0.734164 0.0556207 0.168365
804 1 0.969975 0.0498466 0.170768
901 1 0.860932 0.0766155 0.16364
935 1 0.83634 0.178 0.169747
744 1 0.171384 0.380955 0.158606
822 1 0.062324 0.238731 0.168245
938 1 0.0344298 0.351682 0.161545
727 1 0.191717 0.243049 0.173532
941 1 0.0109352 0.373314 0.174081
723 1 0.29848 0.372517 0.165186
726 1 0.21611 0.275412 0.161358
751 1 0.395963 0.377361 0.174147
845 1 0.354663 0.253187 0.161317
753 1 0.575639 0.377981 0.159109
770 1 0.450655 0.359983 0.158232
851 1 0.48349 0.295537 0.168746
830 1 0.624806 0.271308 0.169148
937 1 0.772291 0.307605 0.168285
918 1 0.897421 0.324929 0.166145
922 1 0.94142 0.237465 0.159129
743 1 0.174556 0.466373 0.17529
848 1 0.19295 0.500478 0.161006
842 1 0.0817346 0.481151 0.166673
946 1 0.293049 0.491964 0.168952
748 1 0.409062 0.556019 0.165362
756 1 0.514116 0.45661 0.169356
856 1 0.711616 0.420519 0.161256
875 1 0.618541 0.564841 0.165531
950 1 0.624807 0.403975 0.170308
960 1 0.717061 0.511856 0.171827
860 1 0.962302 0.470839 0.161324
958 1 0.981275 0.581096 0.164524
863 1 0.931231 0.504403 0.173508
957 1 0.835565 0.433028 0.168307
954 1 0.832491 0.565933 0.163896
858 1 0.0388352 0.698374 0.162596
865 1 0.125806 0.625672 0.166302
879 1 0.0326911 0.667029 0.174531
1000 1 0.000857015 0.794147 0.173706
981 1 0.13817 0.769232 0.169641
768 1 0.376053 0.6822 0.163095
868 1 0.267453 0.725452 0.173229
867 1 0.250856 0.615109 0.166218
772 1 0.511367 0.628388 0.162835
776 1 0.469292 0.727652 0.168446
771 1 0.579749 0.658574 0.173684
791 1 0.634942 0.71131 0.162282
896 1 0.62112 0.79661 0.174638
874 1 0.735094 0.628761 0.167895
780 1 0.760574 0.745361 0.159611
980 1 0.904353 0.631505 0.174703
978 1 0.880842 0.718597 0.164304
882 1 0.163919 0.950451 0.159581
819 1 0.0755623 0.886437 0.168793
886 1 0.348877 0.803813 0.167482
985 1 0.220275 0.868091 0.168578
887 1 0.33564 0.964258 0.168316
795 1 0.547348 0.804124 0.15838
885 1 0.458584 0.892488 0.163043
966 1 0.457646 0.836669 0.17457
891 1 0.594186 0.896876 0.163902
893 1 0.715795 0.844508 0.166568
796 1 0.698426 0.946212 0.160025
811 1 0.664631 0.944063 0.173513
839 1 0.937338 0.944394 0.162577
917 1 0.809759 0.959842 0.167154
784 1 0.98349 0.812233 0.159689
999 1 0.917426 0.902656 0.17534
997 1 0.855817 0.844669 0.165925
903 1 0.124412 0.0936638 0.181294
902 1 0.0428276 0.143105 0.191471
827 1 0.381701 0.155443 0.185965
808 1 0.259364 0.143079 0.18121
908 1 0.228822 0.0758722 0.192175
912 1 0.372381 0.0142857 0.19109
810 1 0.48283 0.118494 0.178887
933 1 0.500673 0.0223317 0.187924
932 1 0.485113 0.138982 0.192161
816 1 0.656201 0.100226 0.191033
833 1 0.602357 0.0477449 0.180177
914 1 0.773591 0.162492 0.191882
835 1 0.737569 0.127971 0.179297
929 1 0.617957 0.185075 0.180905
984 1 0.896669 0.0838139 0.19064
815 1 0.849321 0.0352265 0.177564
1021 1 0.987766 0.143443 0.179098
828 1 0.108468 0.372061 0.182022
923 1 0.0714309 0.233558 0.180647
803 1 0.178466 0.263047 0.187619
824 1 0.0519508 0.294725 0.192615
825 1 0.328382 0.261004 0.177506
832 1 0.395192 0.322522 0.186334
847 1 0.240277 0.359081 0.181789
866 1 0.515751 0.361722 0.181226
812 1 0.515642 0.248987 0.187752
930 1 0.729942 0.259973 0.181955
934 1 0.796788 0.313493 0.191055
951 1 0.627928 0.316756 0.183604
1034 1 0.69498 0.375686 0.19269
916 1 0.863017 0.200604 0.184381
924 1 0.934837 0.314493 0.189863
940 1 0.949999 0.25938 0.175962
1057 1 0.848109 0.350102 0.177516
844 1 0.0514134 0.544925 0.176817
961 1 0.0129784 0.433022 0.189772
945 1 0.130986 0.497224 0.186446
965 1 0.175098 0.590335 0.178647