ITEM: TIMESTEP
10000
ITEM: NUMBER OF ATOMS
5000
ITEM: BOX BOUNDS pp pp pp
0.0000000000000000e+00 8.0180007035687204e+00
0.0000000000000000e+00 8.0180007035687204e+00
0.0000000000000000e+00 8.0180007035687197e+01
ITEM: ATOMS id type xs ys zs
23 1 0.116134 0.196326 0.00986158
21 1 0.0167536 0.19981 0.00132533
1 1 0.00189376 0.000462633 0.000655902
8 1 0.219172 0.0948729 0.0101046
7 1 0.312671 0.0063727 0.0101969
6 1 0.314779 0.0977373 0.000234407
25 1 0.21075 0.19921 0.000155843
29 1 0.397584 0.195044 0.000257995
12 1 0.407102 0.102559 0.0104703
31 1 0.506912 0.193122 0.0105734
11 1 0.51106 0.0133465 0.0101958
16 1 0.610693 0.106092 0.00971674
20 1 0.791837 0.0934694 0.00924055
14 1 0.693394 0.101077 0.000226331
4 1 0.99412 0.0958814 0.00926915
37 1 0.801739 0.198019 0.000780932
39 1 0.903055 0.19165 0.00911727
22 1 0.11421 0.308264 0.00125689
24 1 0.00781768 0.300341 0.00997321
43 1 0.110002 0.390283 0.0113333
27 1 0.314085 0.202167 0.0109492
28 1 0.209539 0.302616 0.0100982
26 1 0.314725 0.320366 0.000378834
32 1 0.406379 0.301368 0.0106875
30 1 0.496539 0.289422 0.00126806
51 1 0.520462 0.385414 0.0108738
35 1 0.708792 0.200354 0.0103284
36 1 0.612783 0.29516 0.00906152
53 1 0.602341 0.390584 0.000905245
55 1 0.704524 0.39396 0.0107143
34 1 0.710033 0.287436 0.00055895
40 1 0.826874 0.296483 0.00972255
59 1 0.90357 0.395014 0.00919846
38 1 0.911996 0.30402 0.000334597
44 1 0.00346552 0.489517 0.00943623
63 1 0.10405 0.588822 0.0100625
47 1 0.309094 0.415965 0.0113567
48 1 0.202884 0.501526 0.0111011
45 1 0.208579 0.413001 0.0015198
46 1 0.30683 0.511785 0.00125872
52 1 0.403122 0.508736 0.0119014
49 1 0.41263 0.415673 0.00214135
71 1 0.522115 0.589403 0.0100987
50 1 0.515003 0.488485 0.00171757
56 1 0.615004 0.496393 0.01127
54 1 0.700733 0.507414 0.000913176
75 1 0.715457 0.591988 0.0110164
60 1 0.813064 0.491829 0.0100604
77 1 0.812304 0.592623 0.000448842
62 1 0.111365 0.700108 0.000135552
68 1 0.207661 0.708514 0.0114859
67 1 0.301059 0.610502 0.011681
87 1 0.306807 0.793573 0.0114493
65 1 0.215366 0.606774 0.000245142
66 1 0.312977 0.698004 0.000965665
72 1 0.426063 0.699919 0.0105372
70 1 0.528098 0.703942 0.000828045
69 1 0.414028 0.605336 0.00114806
76 1 0.624385 0.694746 0.0104449
73 1 0.615189 0.608583 0.000192784
74 1 0.695851 0.702842 0.000565311
64 1 0.998853 0.706582 0.00916403
80 1 0.811141 0.695485 0.00945767
79 1 0.912006 0.603652 0.00841495
3 1 0.112065 0.999011 0.00974592
83 1 0.10459 0.814704 0.00894768
84 1 0.00540789 0.896149 0.010186
5 1 0.208765 0.980989 0.000189996
85 1 0.210821 0.80223 0.000492466
88 1 0.209238 0.894754 0.0105684
86 1 0.317464 0.898898 0.00162385
91 1 0.521134 0.800394 0.0103146
92 1 0.428103 0.901415 0.0105859
89 1 0.418349 0.80797 0.00098779
9 1 0.414662 0.99893 0.00101215
90 1 0.517421 0.900331 0.000347448
15 1 0.704006 0.997689 0.0105691
93 1 0.616619 0.802381 0.00058691
95 1 0.711139 0.814431 0.00955302
96 1 0.608082 0.906267 0.0105154
94 1 0.708848 0.909317 0.000707321
19 1 0.899357 0.999752 0.0116388
99 1 0.903471 0.809566 0.00908071
100 1 0.807049 0.917769 0.0109298
102 1 0.102411 0.109068 0.0201964
104 1 0.00101876 0.105467 0.0300735
101 1 0.00064034 0.0028541 0.0199257
123 1 0.106889 0.186815 0.0305399
103 1 0.102669 0.00908593 0.0297423
108 1 0.205727 0.111778 0.0300237
106 1 0.311187 0.0983726 0.0202468
107 1 0.297163 0.013311 0.030887
125 1 0.214255 0.198464 0.0187518
127 1 0.318387 0.180561 0.030079
112 1 0.423594 0.100005 0.0313671
109 1 0.416041 0.000654987 0.0196976
110 1 0.505513 0.0992882 0.0203035
131 1 0.515133 0.1878 0.0299727
111 1 0.509725 3.76206e-05 0.0293324
116 1 0.624865 0.10078 0.0298497
114 1 0.708881 0.0946313 0.0205233
113 1 0.604648 0.00565108 0.0200168
135 1 0.71094 0.198194 0.0302209
117 1 0.797894 0.00355897 0.0208778
120 1 0.806776 0.100991 0.0303892
118 1 0.902946 0.0959307 0.0209434
139 1 0.902615 0.193497 0.0300019
137 1 0.806365 0.188694 0.0190193
121 1 0.0129845 0.208004 0.01927
122 1 0.119679 0.294313 0.0204602
124 1 0.00393371 0.28831 0.0300672
143 1 0.0978896 0.393671 0.0305038
141 1 0.0038194 0.396003 0.020276
128 1 0.207675 0.283397 0.0305983
126 1 0.301936 0.291211 0.0205551
147 1 0.32777 0.398447 0.0288574
129 1 0.423763 0.208846 0.0201387
132 1 0.419947 0.282482 0.03083
130 1 0.515985 0.307069 0.0207641
151 1 0.505917 0.398906 0.0303
133 1 0.604963 0.205762 0.0193989
136 1 0.61934 0.291319 0.0301497
134 1 0.697024 0.30017 0.0202856
155 1 0.709308 0.387869 0.0298208
140 1 0.809678 0.289799 0.0281237
138 1 0.912171 0.282913 0.0193148
157 1 0.811771 0.39249 0.0180874
159 1 0.91067 0.383068 0.0296211
142 1 0.111586 0.496092 0.0203806
144 1 0.00677267 0.497929 0.0298625
163 1 0.106974 0.595624 0.0317556
161 1 0.0166863 0.596788 0.0196744
145 1 0.219545 0.402973 0.0203853
148 1 0.20174 0.490486 0.0300032
146 1 0.303975 0.511485 0.0213473
149 1 0.410738 0.400546 0.0189502
152 1 0.406793 0.501476 0.0295288
150 1 0.503691 0.491126 0.0195922
171 1 0.497889 0.593896 0.0300238
153 1 0.61306 0.412967 0.0218859
156 1 0.612695 0.500301 0.0308975
154 1 0.710936 0.502458 0.0210123
173 1 0.606626 0.599046 0.0220968
160 1 0.811915 0.468369 0.0299996
158 1 0.911461 0.497658 0.0191785
177 1 0.812439 0.585472 0.0205692
162 1 0.106761 0.706928 0.0193499
165 1 0.192743 0.610099 0.0198896
181 1 0.00751071 0.799459 0.0202005
183 1 0.107617 0.78878 0.0305975
167 1 0.323539 0.601395 0.0299964
168 1 0.217359 0.699474 0.0316254
166 1 0.299564 0.700262 0.0208635
169 1 0.412567 0.605956 0.0207521
172 1 0.410894 0.698982 0.0300109
170 1 0.500853 0.711616 0.020775
175 1 0.716501 0.60334 0.0311463
176 1 0.605939 0.698605 0.0304987
174 1 0.70711 0.692534 0.0200389
193 1 0.616986 0.794582 0.0178565
195 1 0.70465 0.786133 0.0299984
197 1 0.798158 0.798554 0.0214108
179 1 0.913978 0.605158 0.0291314
180 1 0.817699 0.697112 0.0297878
164 1 0.999845 0.687905 0.0308268
178 1 0.913819 0.709601 0.0201202
182 1 0.0967788 0.905957 0.0209411
184 1 0.0113176 0.893737 0.0298557
105 1 0.206032 0.991543 0.01987
187 1 0.304276 0.803143 0.0311102
185 1 0.214536 0.810563 0.0199429
188 1 0.212456 0.903378 0.0307067
186 1 0.318509 0.911458 0.0181091
192 1 0.398155 0.907519 0.0287416
189 1 0.408972 0.802818 0.0204842
191 1 0.507714 0.814197 0.0304113
190 1 0.512381 0.897624 0.0206081
115 1 0.711911 0.995117 0.0307941
196 1 0.611796 0.897462 0.0294622
194 1 0.714312 0.899136 0.0201157
199 1 0.905479 0.806836 0.0298276
119 1 0.922787 0.989755 0.0307248
200 1 0.816233 0.890244 0.0321507
198 1 0.899404 0.892152 0.0196391
202 1 0.107763 0.0906622 0.0402866
208 1 0.19505 0.0982141 0.0503116
225 1 0.193488 0.190294 0.0409601
204 1 0.0141297 0.085452 0.0501283
221 1 0.0104731 0.182859 0.0405975
206 1 0.309084 0.0935087 0.0408958
227 1 0.293986 0.192017 0.0508477
205 1 0.211867 0.00278919 0.0409935
212 1 0.407657 0.110692 0.0501988
229 1 0.416797 0.187222 0.0405325
210 1 0.524697 0.0961991 0.0399861
231 1 0.50296 0.189312 0.0504698
216 1 0.604307 0.0824233 0.0512553
233 1 0.618834 0.189701 0.0400651
214 1 0.703252 0.0977428 0.0413898
235 1 0.710788 0.197536 0.0509192
220 1 0.808428 0.117039 0.0502302
218 1 0.904076 0.0986306 0.0388948
219 1 0.901017 0.00863455 0.0495666
217 1 0.802933 0.00321427 0.0394768
223 1 0.0940663 0.201303 0.0506772
222 1 0.0927566 0.297756 0.0396533
228 1 0.191825 0.290918 0.0507702
224 1 0.00110077 0.304883 0.0505516
241 1 0.00186386 0.39965 0.0394987
226 1 0.307263 0.295058 0.0396782
232 1 0.398512 0.291713 0.0501084
245 1 0.212987 0.387348 0.0390113
247 1 0.300883 0.397254 0.0498378
230 1 0.507432 0.297848 0.0407058
249 1 0.413763 0.392432 0.0401107
253 1 0.599867 0.397162 0.0391379
236 1 0.606072 0.29541 0.050287
234 1 0.699708 0.302221 0.0403123
237 1 0.801675 0.201471 0.0399049
239 1 0.908622 0.202545 0.0500034
240 1 0.804524 0.306179 0.0500714
238 1 0.902809 0.29682 0.0412157
257 1 0.807392 0.397224 0.0412065
243 1 0.102337 0.40556 0.0490525
242 1 0.103706 0.49024 0.0397977
261 1 0.00618178 0.591751 0.0404496
263 1 0.101639 0.589852 0.0496709
248 1 0.207151 0.495113 0.0491491
246 1 0.315617 0.506596 0.0392176
265 1 0.214392 0.58539 0.0396261
267 1 0.306143 0.59459 0.0493433
251 1 0.502324 0.402055 0.049566
252 1 0.410294 0.499574 0.0487095
250 1 0.504737 0.500529 0.039437
271 1 0.519784 0.586681 0.0506646
256 1 0.614417 0.486263 0.0498095
255 1 0.705529 0.40538 0.049815
254 1 0.714675 0.506588 0.0410386
275 1 0.704239 0.595966 0.0502163
244 1 0.999411 0.491213 0.0495572
260 1 0.812669 0.500471 0.0507165
258 1 0.901496 0.502901 0.0397763
259 1 0.908069 0.401508 0.0499323
277 1 0.812215 0.595888 0.0403612
262 1 0.0869547 0.697446 0.0412718
264 1 0.00164502 0.698509 0.0522251
283 1 0.129406 0.789221 0.0509634
281 1 0.00844293 0.796364 0.0396194
268 1 0.21715 0.693678 0.0496491
266 1 0.309931 0.692353 0.0405693
287 1 0.31579 0.79417 0.0495777
285 1 0.209887 0.786246 0.0409102
272 1 0.405474 0.693373 0.0501275
269 1 0.414583 0.601572 0.0406195
270 1 0.502186 0.690567 0.0385884
289 1 0.40179 0.785737 0.0396796
291 1 0.50556 0.797989 0.049864
293 1 0.590539 0.781314 0.0401785
273 1 0.607684 0.602802 0.0397003
276 1 0.60903 0.691635 0.0502979
274 1 0.71715 0.696394 0.0395062
295 1 0.695107 0.798085 0.0509559
279 1 0.911668 0.605523 0.0505115
280 1 0.808274 0.687207 0.0508527
278 1 0.910777 0.700738 0.0396009
297 1 0.812179 0.795441 0.0414979
299 1 0.904215 0.78529 0.0516545
201 1 0.0194863 0.991912 0.0399965
203 1 0.106087 0.98736 0.0502559
282 1 0.119468 0.892888 0.04098
284 1 0.0236185 0.865762 0.0499905
207 1 0.301259 0.996807 0.050429
209 1 0.398085 0.996548 0.0386994
288 1 0.210652 0.890252 0.0510799
286 1 0.30542 0.892352 0.040941
211 1 0.492148 0.998078 0.0499471
292 1 0.405301 0.888766 0.04877
290 1 0.500586 0.892202 0.0400792
213 1 0.613506 0.999563 0.040393
215 1 0.698365 0.99045 0.0501322
296 1 0.601861 0.896506 0.0509949
294 1 0.698329 0.900149 0.0409086
300 1 0.807549 0.906275 0.0495436
298 1 0.905885 0.888589 0.0412258
302 1 0.0975372 0.0757233 0.0607679
323 1 0.0958016 0.189187 0.0697183
308 1 0.200614 0.104801 0.069633
306 1 0.31697 0.0954005 0.0602744
327 1 0.3097 0.198558 0.0693243
310 1 0.506953 0.0938202 0.0610411
309 1 0.402974 0.000865462 0.05923
331 1 0.505117 0.189719 0.06967
311 1 0.502844 0.00528597 0.0698733
314 1 0.706213 0.100181 0.0596541
316 1 0.602607 0.0967099 0.0700511
335 1 0.713218 0.192952 0.069582
317 1 0.793515 0.0043821 0.0586395
315 1 0.708009 0.00608835 0.0697158
320 1 0.820259 0.100879 0.0682453
318 1 0.920982 0.107085 0.0587341
339 1 0.901611 0.197949 0.067831
322 1 0.100437 0.31051 0.0600349
328 1 0.195512 0.294564 0.0698618
324 1 0.00569438 0.297733 0.0694767
325 1 0.203091 0.201562 0.0606102
326 1 0.296918 0.298889 0.059631
347 1 0.300055 0.39582 0.0701227
329 1 0.396219 0.204131 0.0594841
330 1 0.510152 0.293474 0.0600229
333 1 0.595122 0.200333 0.0601635
349 1 0.404105 0.391497 0.0586393
351 1 0.509582 0.391356 0.0700012
332 1 0.404224 0.296487 0.0688718
336 1 0.613423 0.280633 0.0701336
334 1 0.700031 0.28795 0.0600781
353 1 0.60041 0.395932 0.0597319
355 1 0.682678 0.392904 0.0701375
337 1 0.803965 0.203918 0.0595923
321 1 0.998964 0.212419 0.059813
338 1 0.897649 0.30483 0.0593388
340 1 0.802516 0.309231 0.068608
341 1 0.998329 0.393393 0.0602524
359 1 0.897147 0.395298 0.0694997
343 1 0.115512 0.413014 0.0698986
342 1 0.102003 0.491981 0.0595321
361 1 0.00111849 0.583641 0.0590746
363 1 0.105931 0.578141 0.0691638
365 1 0.193168 0.587474 0.0577685
345 1 0.200323 0.407037 0.0600403
346 1 0.306484 0.502587 0.0602345
367 1 0.294209 0.598145 0.0694012
350 1 0.503121 0.485177 0.0604729
356 1 0.596012 0.499225 0.0699069
369 1 0.404659 0.597998 0.0586872
371 1 0.503159 0.592678 0.069011
354 1 0.713326 0.492442 0.0607001
373 1 0.605609 0.595135 0.0611496
344 1 0.999002 0.488963 0.069872
357 1 0.801784 0.406438 0.0596686
358 1 0.903624 0.493789 0.0602211
377 1 0.801354 0.599791 0.062051
379 1 0.8982 0.588056 0.0696096
362 1 0.101071 0.683572 0.058816
381 1 0.00666729 0.789439 0.0608262
366 1 0.317925 0.688062 0.0605504
385 1 0.209887 0.795735 0.0618611
387 1 0.311812 0.787712 0.0699866
389 1 0.399038 0.793625 0.059627
368 1 0.201987 0.685763 0.0694453
370 1 0.501031 0.704062 0.0604532
372 1 0.404677 0.688037 0.0693034
374 1 0.69568 0.694467 0.0620246
397 1 0.794675 0.786626 0.05975
364 1 0.9989 0.683925 0.0691659
378 1 0.90035 0.694206 0.0606031
399 1 0.902679 0.789676 0.0700419
301 1 0.00856016 0.980612 0.0601226
382 1 0.114054 0.904042 0.060414
305 1 0.209376 0.998183 0.0595673
386 1 0.310637 0.896765 0.060703
307 1 0.296551 0.997716 0.0696277
392 1 0.392909 0.907666 0.0700909
390 1 0.49562 0.902087 0.0602504
393 1 0.59598 0.814462 0.0623194
313 1 0.601771 0.996076 0.0603955
394 1 0.708864 0.89043 0.0622384
319 1 0.905193 0.991824 0.0693582
398 1 0.894373 0.88226 0.0598307
402 1 0.0954314 0.0864055 0.0799521
421 1 0.0246524 0.197723 0.080772
405 1 0.189027 0.00242956 0.0816046
425 1 0.207704 0.199258 0.0800556
406 1 0.296204 0.0969946 0.0789396
312 1 0.403991 0.107402 0.0706089
410 1 0.495757 0.0978346 0.0811899
413 1 0.593768 0.0107644 0.0806983
414 1 0.710911 0.0922937 0.0804375
433 1 0.607552 0.193858 0.079595
304 1 0.997477 0.0983269 0.0701965
418 1 0.907653 0.0957768 0.0794663
417 1 0.80256 0.00232634 0.0787312
422 1 0.0962708 0.311808 0.0804761
426 1 0.303265 0.302957 0.0789868
445 1 0.211252 0.390848 0.0791972
429 1 0.407332 0.204407 0.0791112
430 1 0.519532 0.294678 0.0791719
449 1 0.415001 0.392658 0.0798171
453 1 0.60325 0.391803 0.080274
434 1 0.704363 0.31199 0.0797201
437 1 0.807135 0.208708 0.0792215
441 1 0.991528 0.396321 0.0806498
438 1 0.911442 0.284908 0.0791523
457 1 0.800911 0.39884 0.0798791
442 1 0.113852 0.49694 0.0796715
348 1 0.212611 0.496986 0.0714574
446 1 0.29936 0.486393 0.0807586
352 1 0.406189 0.483507 0.0709015
450 1 0.511809 0.493899 0.0801419
469 1 0.411855 0.590782 0.0791822
375 1 0.703613 0.588646 0.0709826
454 1 0.697718 0.490153 0.0815313
360 1 0.803717 0.491416 0.0707367
458 1 0.902515 0.494921 0.0797674
461 1 0.999681 0.594231 0.0786209
477 1 0.800647 0.584994 0.080213
383 1 0.112758 0.793833 0.0711579
462 1 0.103758 0.690967 0.079238
465 1 0.215468 0.601334 0.0796357
466 1 0.303751 0.691926 0.0795181
485 1 0.210271 0.79826 0.0810785
470 1 0.499466 0.695926 0.0796988
473 1 0.596872 0.603282 0.0802623
376 1 0.595488 0.701195 0.0710519
493 1 0.59436 0.792653 0.0806259
474 1 0.696894 0.691839 0.0794719
497 1 0.797858 0.782034 0.0799503
380 1 0.805417 0.69114 0.0706344
478 1 0.904429 0.685395 0.0797027
481 1 0.994443 0.785422 0.080422
303 1 0.0978003 0.983938 0.0707332
482 1 0.099762 0.900543 0.0798742
409 1 0.39667 0.990753 0.0801244
388 1 0.210299 0.889492 0.0716678
486 1 0.301257 0.892892 0.0812034
489 1 0.40063 0.806769 0.080881
391 1 0.48001 0.804307 0.0705011
490 1 0.498413 0.91573 0.0798921
396 1 0.599365 0.901924 0.071263
395 1 0.699636 0.812489 0.0716577
400 1 0.799802 0.904572 0.0707958
494 1 0.688103 0.893784 0.0810396
384 1 0.996246 0.887567 0.0711333
401 1 0.990569 0.995331 0.07946
498 1 0.895937 0.884263 0.0807135
502 1 0.0947268 0.100004 0.0990547
408 1 0.201859 0.0933302 0.0905288
506 1 0.298878 0.102801 0.100405
407 1 0.294549 0.00216893 0.0907636
509 1 0.392452 0.00484568 0.100102
412 1 0.401581 0.0941294 0.0904209
510 1 0.500752 0.0945056 0.100572
513 1 0.593519 0.000901843 0.100051
533 1 0.610089 0.195059 0.0991751
416 1 0.602246 0.101437 0.0897042
514 1 0.705954 0.0854554 0.0999623
435 1 0.708982 0.199429 0.089624
404 1 0.998348 0.0873816 0.0893064
420 1 0.808133 0.0823419 0.090451
518 1 0.922759 0.087631 0.100392
537 1 0.810165 0.196233 0.0991028
439 1 0.912056 0.184188 0.0906528
517 1 0.805637 0.000864492 0.100565
525 1 0.191935 0.203051 0.100439
423 1 0.1047 0.200578 0.0911353
521 1 0.013763 0.20015 0.0996935
522 1 0.102289 0.294889 0.100213
427 1 0.300031 0.201017 0.089799
428 1 0.20443 0.310297 0.0896483
526 1 0.289894 0.306576 0.100434
447 1 0.307585 0.395686 0.0908306
529 1 0.383399 0.202916 0.100505
432 1 0.395128 0.301518 0.0898714
431 1 0.487514 0.201028 0.0908502
530 1 0.488207 0.284888 0.100425
553 1 0.588062 0.38749 0.101442
451 1 0.49109 0.391118 0.0907654
436 1 0.613548 0.284731 0.0893776
534 1 0.709441 0.295448 0.0996654
440 1 0.78543 0.305878 0.0900837
424 1 0.990853 0.30105 0.0898709
538 1 0.895828 0.305098 0.100475
459 1 0.8917 0.393754 0.0892864
443 1 0.0946112 0.410571 0.0901759
541 1 0.00188231 0.404168 0.0996891
542 1 0.0844976 0.515814 0.0996221
463 1 0.103096 0.595912 0.089422
549 1 0.392073 0.405112 0.100956
545 1 0.201138 0.402003 0.099632
448 1 0.203132 0.509119 0.0889056
546 1 0.297257 0.508823 0.100233
467 1 0.310762 0.595653 0.089651
452 1 0.41112 0.492536 0.089563
550 1 0.489227 0.491487 0.101842
471 1 0.488202 0.596001 0.090396
456 1 0.587114 0.492924 0.0928833
573 1 0.589627 0.594363 0.100943
455 1 0.684212 0.401519 0.0930562
554 1 0.701364 0.506867 0.0996639
577 1 0.792516 0.594168 0.0989705
557 1 0.800849 0.402231 0.101713
444 1 0.990699 0.502162 0.0898848
460 1 0.803456 0.49449 0.0907071
558 1 0.901337 0.500997 0.0998898
479 1 0.889103 0.58738 0.0899432
565 1 0.198565 0.603754 0.099869
562 1 0.084708 0.70083 0.100338
483 1 0.104442 0.789228 0.089348
585 1 0.193322 0.771072 0.0995941
569 1 0.399332 0.60265 0.0998194
468 1 0.211129 0.682703 0.0895567
566 1 0.314543 0.700893 0.101326
472 1 0.409199 0.7174 0.090629
570 1 0.505411 0.694603 0.100713
476 1 0.59249 0.695781 0.0904779
475 1 0.690216 0.605177 0.0900782
574 1 0.698434 0.701073 0.0997084
495 1 0.692182 0.797438 0.0893741
593 1 0.605518 0.799635 0.100277
561 1 0.988645 0.601702 0.101103
464 1 0.995999 0.683703 0.0895743
480 1 0.800149 0.692319 0.090336
578 1 0.895657 0.705117 0.0997131
499 1 0.884504 0.79335 0.0896966
403 1 0.0899647 0.988227 0.0900213
505 1 0.190913 0.9944 0.100591
582 1 0.0936509 0.879647 0.101277
484 1 0.0114306 0.886524 0.0894175
488 1 0.197059 0.892977 0.0916145
487 1 0.312179 0.805056 0.0914013
586 1 0.297849 0.913642 0.0998141
492 1 0.396046 0.910668 0.0916831
411 1 0.495557 0.99871 0.0907773
589 1 0.404479 0.808501 0.101138
491 1 0.497458 0.816991 0.090022
590 1 0.496293 0.901359 0.100668
496 1 0.595307 0.906286 0.0914654
415 1 0.698605 0.997939 0.0891836
594 1 0.690193 0.895095 0.0999351
597 1 0.797754 0.80862 0.10031
500 1 0.789886 0.889151 0.0895566
419 1 0.889248 0.987062 0.0892694
581 1 0.995093 0.80199 0.0997014
501 1 0.996384 0.980092 0.0998801
598 1 0.896502 0.89877 0.0990465
602 1 0.0975543 0.0941534 0.120129
504 1 0.00735162 0.0868198 0.110369
508 1 0.193655 0.104033 0.110308
523 1 0.0960593 0.184388 0.110895
625 1 0.195545 0.189537 0.120374
606 1 0.290597 0.0897539 0.12007
512 1 0.391969 0.0869855 0.110841
527 1 0.288179 0.192966 0.110219
507 1 0.284911 0.00314447 0.109796
610 1 0.493687 0.0958105 0.120585
516 1 0.594277 0.0847308 0.109964
633 1 0.586576 0.192637 0.120214
531 1 0.508072 0.187903 0.109026
614 1 0.704149 0.107367 0.119452
535 1 0.710492 0.193149 0.109142
515 1 0.694368 0.0037188 0.109172
617 1 0.795063 0.0125903 0.119787
621 1 0.996475 0.196853 0.120392
520 1 0.821947 0.105477 0.110314
618 1 0.91118 0.0834202 0.121194
539 1 0.91502 0.195336 0.1091
622 1 0.0990726 0.287461 0.120242
524 1 0.00209761 0.29797 0.109817
543 1 0.109335 0.398891 0.109675
645 1 0.198767 0.39442 0.119965
528 1 0.202566 0.2984 0.109773
626 1 0.297714 0.312152 0.119643
629 1 0.381777 0.200864 0.120147
532 1 0.394359 0.305985 0.109455
649 1 0.392434 0.39835 0.120735
630 1 0.47697 0.302199 0.119669
551 1 0.494045 0.387985 0.110893
536 1 0.601302 0.292342 0.110318
634 1 0.710713 0.289405 0.119515
540 1 0.799242 0.288639 0.110407
555 1 0.693884 0.382998 0.109076
657 1 0.795577 0.391917 0.119154
637 1 0.815884 0.201171 0.120701
638 1 0.908404 0.306808 0.119986
559 1 0.911361 0.398978 0.109973
641 1 0.0035148 0.412048 0.120371
642 1 0.113843 0.49289 0.120397
544 1 0.00974835 0.505518 0.110916
548 1 0.193633 0.503507 0.108729
661 1 0.000945812 0.593525 0.12046
665 1 0.197793 0.594232 0.120488
547 1 0.290597 0.409223 0.109838
646 1 0.300103 0.507269 0.120524
552 1 0.386642 0.496027 0.110959
669 1 0.394311 0.58877 0.120482
650 1 0.494956 0.50241 0.119442
571 1 0.483377 0.588911 0.109756
556 1 0.586155 0.499427 0.110154
653 1 0.590049 0.405234 0.118908
654 1 0.692048 0.497549 0.119328
677 1 0.783822 0.596115 0.119361
560 1 0.805938 0.502238 0.108667
658 1 0.890924 0.505142 0.118889
579 1 0.902177 0.592039 0.110375
563 1 0.0955609 0.602034 0.111839
662 1 0.0944064 0.702438 0.120568
583 1 0.0925572 0.796363 0.11103
685 1 0.187939 0.798328 0.120057
567 1 0.302554 0.602866 0.110878
568 1 0.203921 0.707713 0.110371
666 1 0.299354 0.702034 0.120738
587 1 0.302879 0.794933 0.110314
572 1 0.406351 0.699684 0.111364
670 1 0.48679 0.69532 0.120272
673 1 0.59391 0.600193 0.120879
576 1 0.586723 0.695478 0.110644
575 1 0.685972 0.605484 0.110086
674 1 0.696601 0.707905 0.119694
693 1 0.602554 0.795731 0.120844
697 1 0.799067 0.791451 0.120969
564 1 0.991152 0.698267 0.110427
580 1 0.806165 0.688058 0.108999
678 1 0.899545 0.701139 0.120501
681 1 0.996076 0.792845 0.121556
605 1 0.183963 0.997086 0.119803
503 1 0.0913394 0.994366 0.109104
682 1 0.0994153 0.89292 0.120274
584 1 0.00510139 0.893654 0.110446
588 1 0.192788 0.888466 0.11047
609 1 0.385781 0.979667 0.119994
689 1 0.392229 0.80309 0.119587
686 1 0.287346 0.89249 0.119916
592 1 0.385147 0.894262 0.110364
591 1 0.497068 0.800135 0.111749
511 1 0.502663 0.99226 0.110325
690 1 0.504177 0.898038 0.118918
596 1 0.598595 0.906125 0.109345
613 1 0.605256 0.997312 0.119732
595 1 0.696448 0.806544 0.111093
694 1 0.699504 0.903732 0.119289
600 1 0.78997 0.908544 0.109042
601 1 0.993904 0.983775 0.120969
519 1 0.902588 0.99248 0.109907
599 1 0.898413 0.803975 0.108897
698 1 0.888052 0.901367 0.119795
702 1 0.10354 0.0930978 0.139207
604 1 0.0100689 0.096888 0.129931
608 1 0.196741 0.0946673 0.128984
725 1 0.189244 0.184349 0.139381
603 1 0.0949937 0.00481334 0.129766
612 1 0.394658 0.106389 0.12855
706 1 0.280748 0.0886282 0.139124
710 1 0.494247 0.0990059 0.138791
631 1 0.493733 0.194823 0.129802
713 1 0.591814 0.0100167 0.139419
616 1 0.60563 0.107942 0.130076
714 1 0.685221 0.111368 0.140277
620 1 0.792131 0.109855 0.131393
615 1 0.700739 0.0081419 0.129799
717 1 0.801488 0.00460958 0.140057
623 1 0.0971637 0.201698 0.130199
722 1 0.0978303 0.291068 0.139864
624 1 0.00140339 0.295372 0.130101
628 1 0.186403 0.30471 0.130015
627 1 0.300686 0.2029 0.129979
632 1 0.389511 0.30109 0.131085
726 1 0.292122 0.306415 0.139615
651 1 0.490776 0.397579 0.129129
730 1 0.492608 0.300658 0.140058
733 1 0.580429 0.205345 0.139316
636 1 0.589075 0.292237 0.129612
737 1 0.784166 0.218942 0.139812
635 1 0.691233 0.204817 0.131188
734 1 0.680155 0.308102 0.139777
640 1 0.793655 0.307802 0.130479
655 1 0.69117 0.392143 0.128713
639 1 0.902335 0.213602 0.129483
721 1 0.992922 0.200664 0.139864
659 1 0.91009 0.396607 0.129645
643 1 0.100886 0.403762 0.129058
742 1 0.0999541 0.508869 0.140244
663 1 0.0979759 0.598045 0.129976
765 1 0.199289 0.587252 0.140247
647 1 0.302634 0.405084 0.130157
648 1 0.20119 0.498936 0.129968
652 1 0.386056 0.505172 0.12992
769 1 0.398384 0.598369 0.140292
745 1 0.200973 0.410295 0.139458
750 1 0.495862 0.502686 0.140304
656 1 0.591789 0.494244 0.129161
773 1 0.594189 0.592214 0.138627
671 1 0.497231 0.599258 0.129886
660 1 0.779829 0.494588 0.130501
675 1 0.689661 0.590869 0.129005
644 1 0.991715 0.500875 0.129487
758 1 0.885253 0.476229 0.140142
777 1 0.808575 0.596708 0.139489
761 1 0.992682 0.591184 0.139778
679 1 0.900069 0.59173 0.129885
762 1 0.0998374 0.696884 0.139651
668 1 0.192196 0.701527 0.130115
683 1 0.0941184 0.794345 0.129932
785 1 0.199345 0.794374 0.139757
667 1 0.294331 0.602852 0.131187
687 1 0.295519 0.795378 0.130119
766 1 0.286178 0.701339 0.139886
789 1 0.388586 0.791572 0.139648
672 1 0.406797 0.705094 0.129421
770 1 0.50211 0.70391 0.138529
676 1 0.59339 0.695696 0.129293
774 1 0.687533 0.691083 0.139017
680 1 0.796564 0.685716 0.130184
797 1 0.799282 0.799951 0.139971
664 1 0.996181 0.690865 0.129739
778 1 0.897123 0.700441 0.139236
781 1 0.999488 0.787978 0.140002
705 1 0.187399 0.990977 0.139289
684 1 0.00258706 0.907474 0.131617
688 1 0.185647 0.90084 0.130106
607 1 0.280553 0.995698 0.128634
786 1 0.294211 0.889981 0.139041
692 1 0.396974 0.886295 0.129827
709 1 0.378373 0.995237 0.138762
611 1 0.487639 0.99322 0.129145
691 1 0.495297 0.803503 0.128745
790 1 0.47965 0.919427 0.140111
696 1 0.595054 0.910901 0.128392
793 1 0.582985 0.823408 0.138496
695 1 0.704307 0.820906 0.130249
700 1 0.795356 0.915042 0.129341
619 1 0.901087 0.999618 0.132375
699 1 0.888095 0.804783 0.130341
798 1 0.89128 0.891055 0.139916
708 1 0.197557 0.104722 0.150991
801 1 0.00351353 0.00683233 0.157585
729 1 0.384298 0.199222 0.140979
712 1 0.372384 0.0896666 0.149473
727 1 0.281931 0.196839 0.149248
716 1 0.581103 0.107456 0.148817
711 1 0.479188 0.0130797 0.149764
720 1 0.78977 0.0981815 0.150078
715 1 0.681362 0.00255763 0.149781
718 1 0.893326 0.103341 0.141514
704 1 0.999094 0.10719 0.150434
739 1 0.883557 0.1993 0.149687
723 1 0.101905 0.203054 0.151006
743 1 0.0957833 0.396798 0.148769
749 1 0.38898 0.389758 0.140459
728 1 0.205159 0.298923 0.150272
732 1 0.382932 0.291109 0.151033
731 1 0.4733 0.200381 0.149997
736 1 0.579721 0.293195 0.149772
751 1 0.483792 0.399545 0.150448
757 1 0.780125 0.397977 0.141592
735 1 0.687493 0.200689 0.150245
755 1 0.687865 0.394986 0.15142
738 1 0.886325 0.291329 0.14052
741 1 0.999704 0.38515 0.140483
740 1 0.802081 0.290455 0.150724
724 1 0.999364 0.288337 0.150517
759 1 0.906481 0.383333 0.15011
763 1 0.0954028 0.599848 0.150517
748 1 0.187261 0.507586 0.151063
747 1 0.288799 0.412988 0.150784
746 1 0.298517 0.508255 0.14085
752 1 0.388865 0.514221 0.15084
767 1 0.297033 0.596298 0.15013
753 1 0.57799 0.400081 0.141553
754 1 0.683424 0.49001 0.140392
756 1 0.603996 0.503368 0.151247
760 1 0.78152 0.498524 0.149012
744 1 0.982247 0.49522 0.149726
779 1 0.895587 0.598871 0.149108
764 1 0.00306112 0.705852 0.150891
768 1 0.189617 0.70604 0.14976
772 1 0.398495 0.691555 0.149066
771 1 0.505445 0.601178 0.149502
776 1 0.589 0.71417 0.14873
775 1 0.701631 0.600588 0.149091
780 1 0.797038 0.704361 0.148701
795 1 0.679547 0.798519 0.147964
799 1 0.897075 0.796419 0.149084
782 1 0.0976587 0.897802 0.140863
783 1 0.0912848 0.801488 0.150172
703 1 0.11624 0.997104 0.14979
787 1 0.296988 0.804628 0.149386
788 1 0.203159 0.888033 0.150086
707 1 0.288083 0.987422 0.150085
792 1 0.38261 0.893545 0.150827
791 1 0.48799 0.807745 0.148071
796 1 0.592143 0.905001 0.148889
794 1 0.698262 0.903818 0.14069
800 1 0.795086 0.891867 0.150311
701 1 0.999056 0.998319 0.142694
719 1 0.882955 0.992165 0.15187
784 1 0.992125 0.892796 0.149711
802 1 0.0937814 0.0939489 0.159852
823 1 0.0956658 0.190678 0.170215
808 1 0.208303 0.0822604 0.17062
825 1 0.201241 0.194033 0.160553
806 1 0.291386 0.0904215 0.160996
827 1 0.303011 0.189512 0.170323
829 1 0.375807 0.179429 0.159258
809 1 0.394301 0.0107336 0.160333
812 1 0.40699 0.0928387 0.17132
810 1 0.486663 0.110939 0.160096
816 1 0.585368 0.102561 0.169575
811 1 0.489206 0.00328786 0.168763
813 1 0.576466 0.00366508 0.159203
814 1 0.685146 0.113138 0.159213
820 1 0.784108 0.0952744 0.170059
815 1 0.671757 5.60087e-05 0.168958
817 1 0.776952 0.00679569 0.159719
804 1 0.989175 0.0920626 0.168111
818 1 0.872753 0.103316 0.160079
819 1 0.886855 0.00330837 0.168666
821 1 0.994466 0.197081 0.160057
839 1 0.883818 0.196521 0.169336
822 1 0.0978952 0.304646 0.160667
828 1 0.195242 0.28645 0.17006
845 1 0.19606 0.396625 0.159045
826 1 0.288428 0.293489 0.159841
832 1 0.381657 0.302043 0.171093
831 1 0.494897 0.203145 0.172481
830 1 0.48564 0.297433 0.159263
833 1 0.578635 0.204044 0.159373
836 1 0.593121 0.301888 0.171074
851 1 0.482088 0.388504 0.170773
835 1 0.680071 0.208614 0.16958
837 1 0.775974 0.20516 0.160516
834 1 0.689337 0.300784 0.160637
855 1 0.699391 0.389333 0.170135
840 1 0.788188 0.303342 0.168572
857 1 0.791574 0.395759 0.159772
824 1 0.98787 0.292187 0.169621
838 1 0.890373 0.31267 0.160582
843 1 0.0995891 0.400773 0.170075
842 1 0.103073 0.49711 0.160399
844 1 0.00272824 0.509005 0.170285
848 1 0.196289 0.493502 0.169705
849 1 0.371741 0.400737 0.160308
847 1 0.286571 0.403393 0.170631
846 1 0.300712 0.501682 0.160562
867 1 0.302979 0.598013 0.171087
853 1 0.590833 0.400847 0.15959
852 1 0.404357 0.496437 0.170699
850 1 0.489589 0.484831 0.160459
856 1 0.593988 0.493946 0.169268
854 1 0.698796 0.499643 0.160305
873 1 0.616877 0.598077 0.160325
875 1 0.700951 0.599134 0.171641
860 1 0.785805 0.494371 0.170274
841 1 0.985906 0.407789 0.160244
859 1 0.90401 0.402006 0.169605
858 1 0.88039 0.502008 0.159992
861 1 0.00435503 0.603086 0.160778
863 1 0.100955 0.602271 0.168799
862 1 0.0966578 0.696917 0.159988
883 1 0.098879 0.7989 0.169725
864 1 0.0114919 0.700272 0.170559
868 1 0.192504 0.71306 0.168956
885 1 0.196494 0.791745 0.158767
865 1 0.203132 0.604797 0.160536
866 1 0.289323 0.700977 0.159564
869 1 0.385995 0.605907 0.159717
872 1 0.398596 0.691715 0.169704
887 1 0.297781 0.796577 0.169308
870 1 0.497373 0.690436 0.158797
871 1 0.494542 0.600497 0.169784
891 1 0.496021 0.790909 0.169027
876 1 0.591256 0.700778 0.169275
893 1 0.588979 0.798257 0.160232
874 1 0.697258 0.720556 0.160522
877 1 0.786799 0.604053 0.16018
879 1 0.899813 0.601899 0.171447
880 1 0.80476 0.699842 0.168637
878 1 0.895473 0.695545 0.159433
897 1 0.802052 0.796616 0.15946
803 1 0.111666 0.986341 0.169872
882 1 0.0985366 0.898378 0.159761
807 1 0.304281 0.988702 0.17043
805 1 0.206347 0.98119 0.160421
888 1 0.203493 0.892155 0.169728
886 1 0.299599 0.894999 0.160427
892 1 0.395919 0.893726 0.169261
889 1 0.40252 0.802585 0.158496
890 1 0.494316 0.904226 0.158454
896 1 0.58726 0.904022 0.169216
895 1 0.686916 0.806947 0.169296
894 1 0.684194 0.88535 0.158239
900 1 0.790339 0.904874 0.169482
881 1 0.989145 0.804377 0.16095
884 1 0.996507 0.919476 0.168521
899 1 0.910769 0.823187 0.171517
898 1 0.892097 0.89167 0.160824
902 1 0.0943486 0.0941148 0.178921
925 1 0.198583 0.189583 0.179246
903 1 0.0939929 0.00131874 0.189422
908 1 0.209051 0.0945761 0.188952