ITEM: TIMESTEP
40000
ITEM: NUMBER OF ATOMS
5000
ITEM: BOX BOUNDS pp pp pp
0.0000000000000000e+00 8.0180007035687204e+00
0.0000000000000000e+00 8.0180007035687204e+00
0.0000000000000000e+00 8.0180007035687197e+01
ITEM: ATOMS id type xs ys zs
4 1 0.00199101 0.0895133 0.00955297
21 1 0.00469392 0.170907 0.000309943
23 1 0.0957164 0.191767 0.00971356
8 1 0.206715 0.103525 0.0104278
7 1 0.311273 0.00961522 0.00882405
12 1 0.388375 0.110464 0.00951604
27 1 0.304111 0.194299 0.0095624
11 1 0.512163 0.00937054 0.0100277
10 1 0.494246 0.101889 0.000161138
16 1 0.615744 0.09683 0.00803298
35 1 0.714506 0.174608 0.00885535
15 1 0.704114 0.000243222 0.00877642
20 1 0.809827 0.0918069 0.0102398
18 1 0.891065 0.0891679 0.000596344
39 1 0.906651 0.168478 0.0112346
28 1 0.190699 0.290181 0.0108835
43 1 0.126531 0.398425 0.011013
45 1 0.177595 0.387194 0.000487792
22 1 0.0864463 0.281272 0.000336793
47 1 0.287511 0.39917 0.00990018
26 1 0.28028 0.312649 0.000865424
29 1 0.403647 0.226824 0.000955896
31 1 0.492322 0.218894 0.0112607
32 1 0.400157 0.317345 0.0112965
30 1 0.503708 0.312604 0.000654709
36 1 0.61382 0.290509 0.00984437
40 1 0.798843 0.291536 0.0108662
55 1 0.704848 0.388815 0.0104192
34 1 0.703729 0.280866 0.000531409
53 1 0.601675 0.387548 0.000933894
24 1 0.997152 0.275362 0.0114748
59 1 0.916618 0.380074 0.00938646
38 1 0.886356 0.260482 0.00263612
44 1 0.0130381 0.464795 0.00852212
63 1 0.0905745 0.571252 0.00826221
48 1 0.207216 0.503619 0.00828572
52 1 0.399666 0.528954 0.00978627
51 1 0.478447 0.410063 0.00856045
71 1 0.506163 0.592809 0.010947
56 1 0.60446 0.48765 0.00868566
54 1 0.703316 0.502865 0.00238798
75 1 0.72606 0.599703 0.00985462
60 1 0.806872 0.474199 0.00891559
58 1 0.903822 0.480964 0.00163612
77 1 0.80905 0.577353 0.000370964
79 1 0.901181 0.575408 0.00975776
68 1 0.191568 0.700733 0.00994682
83 1 0.109629 0.782533 0.006966
67 1 0.319209 0.617387 0.0071648
72 1 0.432325 0.696973 0.00964096
76 1 0.613466 0.703173 0.00848963
74 1 0.721067 0.684617 0.000805227
95 1 0.711596 0.795558 0.0114061
97 1 0.789703 0.799657 0.000319117
64 1 0.982786 0.682654 0.0108285
80 1 0.82227 0.696029 0.0109084
3 1 0.0932804 0.992346 0.0098863
88 1 0.189043 0.897347 0.0106936
82 1 0.114474 0.894047 7.97005e-05
84 1 0.0106835 0.87092 0.0109996
87 1 0.29246 0.800577 0.00791938
5 1 0.207971 0.996956 0.00110057
9 1 0.42046 0.998724 0.000398586
91 1 0.504723 0.801114 0.0107364
92 1 0.407089 0.903168 0.00864439
109 1 0.41237 0.987121 0.0174971
96 1 0.610633 0.889457 0.0102966
100 1 0.792688 0.890323 0.00978728
17 1 0.801676 0.997658 1.14951e-05
99 1 0.902455 0.800543 0.00945734
19 1 0.889233 0.99096 0.0109248
98 1 0.888689 0.898552 0.00161565
1 1 0.996898 0.968234 0.000754773
102 1 0.104217 0.0903511 0.0185234
108 1 0.199646 0.0796168 0.0281823
123 1 0.0949874 0.162833 0.0307357
121 1 0.00444666 0.17656 0.0205131
106 1 0.300391 0.094479 0.0193685
107 1 0.30413 0.00043367 0.028748
125 1 0.205518 0.182923 0.0199152
127 1 0.290369 0.16871 0.0304151
112 1 0.410997 0.0770069 0.0274196
110 1 0.503835 0.10428 0.0181474
116 1 0.605091 0.0904192 0.0277624
114 1 0.716179 0.0702436 0.0198787
133 1 0.625853 0.186346 0.0184063
135 1 0.72736 0.188952 0.0301745
113 1 0.602758 0.00849851 0.0184673
104 1 0.999524 0.0882025 0.030479
120 1 0.804168 0.0755423 0.0303094
118 1 0.917991 0.080474 0.0201462
137 1 0.818315 0.180414 0.0202923
139 1 0.903329 0.181823 0.0297007
122 1 0.110279 0.256896 0.0214892
143 1 0.0910311 0.39123 0.0302838
128 1 0.19684 0.264907 0.0300919
124 1 0.0154373 0.288945 0.0301075
145 1 0.198393 0.385922 0.0216014
141 1 0.00747569 0.382112 0.0192605
129 1 0.392581 0.203379 0.0187756
126 1 0.290121 0.315056 0.0189699
132 1 0.393901 0.301118 0.0290083
131 1 0.499544 0.208153 0.0277107
130 1 0.512266 0.320512 0.0184064
151 1 0.475557 0.395125 0.031598
136 1 0.608558 0.298601 0.0283477
134 1 0.716132 0.27167 0.0195821
155 1 0.718006 0.373976 0.0292598
153 1 0.608422 0.393193 0.0203686
140 1 0.806049 0.293267 0.0291411
138 1 0.911701 0.277225 0.0208767
159 1 0.913523 0.36981 0.0286938
157 1 0.824766 0.381664 0.0183305
142 1 0.105904 0.482937 0.0208997
163 1 0.0908547 0.582212 0.0298214
144 1 0.00388405 0.488292 0.0289119
161 1 0.0118823 0.574193 0.0192143
149 1 0.397157 0.433479 0.0185553
147 1 0.321643 0.400877 0.0285755
148 1 0.203315 0.502286 0.0287687
146 1 0.297887 0.53818 0.0176982
152 1 0.393365 0.510748 0.0302393
150 1 0.5272 0.486491 0.0195806
171 1 0.502584 0.581909 0.0294926
156 1 0.62116 0.520996 0.030669
154 1 0.696978 0.490125 0.0203983
175 1 0.719751 0.5969 0.0283464
160 1 0.785466 0.48166 0.0286062
173 1 0.606337 0.596738 0.0205264
177 1 0.822187 0.591222 0.0185996
158 1 0.90451 0.481797 0.0206809
179 1 0.915086 0.596298 0.0293141
162 1 0.0898529 0.6884 0.0177395
165 1 0.191912 0.601151 0.0178811
168 1 0.16829 0.684047 0.0272048
164 1 0.00663584 0.697237 0.0313041
185 1 0.180592 0.784013 0.0193989
181 1 0.0101848 0.787493 0.021398
169 1 0.398726 0.62322 0.0190574
167 1 0.308311 0.605171 0.0299426
166 1 0.286853 0.685426 0.0193674
187 1 0.296781 0.791882 0.0278426
189 1 0.383339 0.771757 0.0176304
172 1 0.407706 0.695616 0.0308739
170 1 0.512189 0.697228 0.0198857
176 1 0.594058 0.689638 0.0302176
191 1 0.510965 0.798202 0.0284421
174 1 0.706802 0.697491 0.0212063
193 1 0.610781 0.773034 0.0196743
195 1 0.700311 0.789952 0.0292313
180 1 0.803643 0.726686 0.0321226
178 1 0.900337 0.683195 0.0205797
199 1 0.918266 0.787015 0.0310706
103 1 0.0947931 0.993571 0.0297869
101 1 0.00845201 0.995264 0.0191878
105 1 0.199549 0.99639 0.0186805
183 1 0.117689 0.811619 0.0297016
182 1 0.0997833 0.897727 0.0207367
184 1 0.000391672 0.896687 0.0289163
188 1 0.204802 0.89978 0.0287064
186 1 0.29467 0.899367 0.0195427
111 1 0.503622 0.995541 0.0281477
192 1 0.402138 0.882857 0.0292705
190 1 0.490269 0.890408 0.0197159
196 1 0.59525 0.892925 0.0288263
115 1 0.715225 0.984678 0.0311634
194 1 0.696453 0.890074 0.0208352
117 1 0.804019 0.977407 0.0211788
119 1 0.904992 0.990819 0.0293754
197 1 0.800327 0.809875 0.0220661
200 1 0.801738 0.882546 0.0312763
198 1 0.908023 0.897301 0.020115
202 1 0.09456 0.0877018 0.0410863
223 1 0.0884647 0.190129 0.0478146
225 1 0.182081 0.187905 0.0396758
208 1 0.205403 0.0870303 0.0473207
206 1 0.333391 0.0923837 0.0410221
207 1 0.310027 0.00403717 0.0500047
227 1 0.329615 0.184794 0.0504073
209 1 0.419041 0.00948005 0.0382211
210 1 0.497461 0.121426 0.038336
216 1 0.590863 0.102262 0.0482794
231 1 0.508827 0.189032 0.0507872
212 1 0.41748 0.0929661 0.0499596
213 1 0.606507 0.00129968 0.0383996
214 1 0.686566 0.10273 0.0411449
215 1 0.692816 0.00558738 0.0501338
220 1 0.797257 0.0876119 0.0521442
235 1 0.688801 0.198815 0.0490806
237 1 0.796034 0.168192 0.0401251
204 1 0.974372 0.0906499 0.0492698
218 1 0.883747 0.0671616 0.0407813
239 1 0.885063 0.184099 0.0502301
222 1 0.107023 0.29693 0.0402011
224 1 0.00423319 0.300252 0.0487852
228 1 0.208894 0.270992 0.0487198
226 1 0.298373 0.298965 0.0379999
247 1 0.30028 0.382338 0.0476595
229 1 0.413321 0.218965 0.0384617
233 1 0.594894 0.201807 0.0365672
232 1 0.405599 0.297219 0.0483987
230 1 0.515651 0.281448 0.0411624
251 1 0.510973 0.3905 0.0490389
236 1 0.60839 0.289435 0.0485634
234 1 0.740845 0.298498 0.0395773
240 1 0.799279 0.28153 0.0505163
255 1 0.693126 0.396126 0.0486457
221 1 0.970473 0.211002 0.0401247
238 1 0.866616 0.306682 0.0400784
259 1 0.907688 0.395044 0.0490773
241 1 0.980209 0.389669 0.0389037
243 1 0.0949148 0.403503 0.0488385
242 1 0.104959 0.488384 0.0395646
248 1 0.198515 0.480857 0.0502041
244 1 0.020288 0.523142 0.0520853
265 1 0.189499 0.586194 0.0391564
249 1 0.388828 0.412559 0.0402353
245 1 0.214705 0.402218 0.0375091
246 1 0.285799 0.501354 0.0391409
252 1 0.422014 0.496767 0.0494986
250 1 0.519883 0.483856 0.0388674
271 1 0.504532 0.591771 0.0508613
253 1 0.612649 0.40656 0.037795
256 1 0.614603 0.514291 0.0495507
254 1 0.699727 0.49646 0.0404444
257 1 0.801795 0.410764 0.0412314
260 1 0.807313 0.503957 0.0489597
258 1 0.883302 0.501437 0.0366029
261 1 0.997308 0.581194 0.0394128
279 1 0.914792 0.593921 0.0489752
263 1 0.124729 0.604538 0.0511628
262 1 0.109254 0.707696 0.0398371
264 1 0.0158752 0.682655 0.0503379
283 1 0.0787866 0.786128 0.0511168
267 1 0.286005 0.60509 0.0487621
266 1 0.317562 0.701052 0.0390512
268 1 0.217059 0.722397 0.0481924
285 1 0.237212 0.797769 0.038446
287 1 0.32413 0.798836 0.0497462
269 1 0.400702 0.608177 0.040711
272 1 0.406183 0.692415 0.0502913
270 1 0.511748 0.687561 0.0405906
291 1 0.507432 0.778304 0.0503203
293 1 0.594802 0.781539 0.0391943
277 1 0.797703 0.610793 0.0409989
273 1 0.609962 0.604509 0.0398576
276 1 0.601558 0.691378 0.049555
275 1 0.699095 0.613727 0.0504485
274 1 0.707698 0.703366 0.0415924
280 1 0.805653 0.707907 0.0510618
278 1 0.892149 0.699984 0.0398443
201 1 0.0011862 0.988968 0.0390502
203 1 0.093562 0.996962 0.0501849
282 1 0.110506 0.880664 0.0407227
281 1 0.00140432 0.800334 0.0409419
205 1 0.229957 0.981332 0.0393629
288 1 0.227265 0.892128 0.0502651
286 1 0.316175 0.895513 0.0387887
211 1 0.519132 0.98822 0.0493105
289 1 0.423041 0.802429 0.0390392
292 1 0.423613 0.894538 0.0475999
290 1 0.528597 0.891508 0.0403157
217 1 0.784 0.986879 0.0413847
295 1 0.691523 0.804444 0.0501677
296 1 0.601354 0.896016 0.050843
294 1 0.680836 0.872429 0.0394467
300 1 0.786702 0.886946 0.0511763
219 1 0.898623 0.996601 0.0520263
284 1 0.987729 0.902691 0.0509859
297 1 0.801565 0.804412 0.0423079
299 1 0.896131 0.80199 0.049904
298 1 0.896273 0.916175 0.041846
302 1 0.0927872 0.102382 0.060696
305 1 0.198756 0.000222373 0.0598394
325 1 0.211417 0.18598 0.0580289
306 1 0.296472 0.0867005 0.0599371
327 1 0.271556 0.199968 0.0691572
308 1 0.201844 0.0869328 0.0681185
312 1 0.395871 0.1044 0.0698979
309 1 0.406208 0.0109374 0.060642
310 1 0.502292 0.0900995 0.059425
313 1 0.599366 0.00432284 0.0594459
316 1 0.597919 0.107364 0.068724
329 1 0.415145 0.196444 0.0601349
333 1 0.597784 0.199466 0.0590167
314 1 0.690313 0.103996 0.0593006
337 1 0.791478 0.199725 0.0595211
318 1 0.887767 0.0876505 0.0598883
304 1 0.986279 0.0814171 0.0697897
321 1 0.00322493 0.203736 0.0579953
322 1 0.107538 0.295112 0.0566573
343 1 0.0987176 0.398699 0.0668331
323 1 0.11128 0.222798 0.0681455
326 1 0.298591 0.292777 0.0584758
345 1 0.204689 0.394663 0.0588446
349 1 0.398855 0.390718 0.0578833
328 1 0.206309 0.31049 0.0674632
332 1 0.390566 0.310023 0.0678621
347 1 0.301834 0.395403 0.0700805
330 1 0.490715 0.303604 0.0583827
331 1 0.493832 0.208162 0.0698133
351 1 0.484263 0.397867 0.0691314
334 1 0.696366 0.282378 0.0600721
353 1 0.606678 0.393159 0.0583258
355 1 0.694882 0.391815 0.0688284
336 1 0.604641 0.282016 0.0689341
338 1 0.900592 0.28805 0.0581094
357 1 0.810562 0.37991 0.058524
341 1 0.995675 0.378794 0.060229
342 1 0.110629 0.492406 0.0592096
363 1 0.0942425 0.576102 0.0681853
346 1 0.302986 0.472973 0.0573459
348 1 0.203891 0.476666 0.0683214
365 1 0.20977 0.570225 0.0602326
369 1 0.381559 0.583588 0.0581426
350 1 0.529283 0.484284 0.0593553
356 1 0.594218 0.498318 0.0701194
371 1 0.501822 0.581346 0.068982
354 1 0.712524 0.491943 0.0582704
360 1 0.783275 0.508939 0.0699143
373 1 0.614232 0.591623 0.0608295
344 1 0.999675 0.488913 0.0661203
359 1 0.90609 0.402548 0.0687083
358 1 0.894543 0.49307 0.0587788
377 1 0.806527 0.584624 0.059342
362 1 0.101111 0.69348 0.0604474
368 1 0.209572 0.694594 0.0678175
366 1 0.305484 0.687517 0.0599125
387 1 0.291414 0.799259 0.0687064
385 1 0.208104 0.787778 0.0591156
367 1 0.307132 0.60877 0.0700114
372 1 0.398644 0.698155 0.0694979
370 1 0.499377 0.680349 0.0591257
376 1 0.596877 0.696575 0.0692726
389 1 0.415066 0.788482 0.0597829
391 1 0.498479 0.774067 0.0693249
374 1 0.693376 0.731386 0.0611999
397 1 0.797127 0.799537 0.0602591
361 1 0.970081 0.612743 0.0602205
381 1 0.990472 0.764355 0.0602344
378 1 0.878373 0.692079 0.061518
301 1 0.00600654 0.998382 0.0601787
382 1 0.110228 0.898925 0.0592067
388 1 0.197988 0.891642 0.0678811
386 1 0.31692 0.915833 0.0594116
307 1 0.306987 0.992529 0.0689967
390 1 0.484521 0.903387 0.0588868
393 1 0.587339 0.814289 0.0608054
311 1 0.500058 0.984879 0.0695241
392 1 0.413547 0.871928 0.069582
317 1 0.770649 0.994447 0.0595151
394 1 0.688755 0.897026 0.0593446
400 1 0.788563 0.897249 0.0688782
396 1 0.623449 0.929812 0.0696608
395 1 0.684449 0.817529 0.0701032
398 1 0.906073 0.890091 0.0611546
303 1 0.103585 0.00362019 0.070393
402 1 0.104391 0.116802 0.0770407
421 1 0.0125112 0.189915 0.0801891
401 1 0.0347561 0.0115931 0.0821771
405 1 0.207921 0.0003207 0.0792211
406 1 0.277717 0.117342 0.0805005
410 1 0.494524 0.109502 0.0795896
315 1 0.702586 0.0232173 0.0707989
413 1 0.602335 0.0293834 0.079148
414 1 0.684088 0.139136 0.0818043
320 1 0.813862 0.109287 0.0729915
417 1 0.809277 0.0139994 0.0829198
418 1 0.926737 0.0857677 0.0808715
319 1 0.85028 0.00118679 0.0708926
324 1 0.00995185 0.29874 0.0707548
425 1 0.191823 0.214994 0.0796047
422 1 0.0936647 0.305782 0.0785509
426 1 0.31631 0.299186 0.0798938
445 1 0.215704 0.373718 0.079152
429 1 0.40698 0.212026 0.0800211
433 1 0.595341 0.224203 0.0800053
430 1 0.489226 0.305011 0.0790426
453 1 0.58298 0.398345 0.078277
335 1 0.708209 0.216621 0.0706153
434 1 0.684359 0.304294 0.0795103
340 1 0.822724 0.314326 0.0706488
437 1 0.81656 0.216031 0.0792907
339 1 0.923624 0.219651 0.0703704
438 1 0.920063 0.306561 0.0794051
441 1 0.0111039 0.403074 0.0781879
442 1 0.129717 0.463082 0.079197
461 1 0.0267508 0.577479 0.0795358
465 1 0.182766 0.593839 0.0781218
352 1 0.386278 0.491248 0.0703779
446 1 0.292766 0.510954 0.0789673
449 1 0.417684 0.402462 0.0814986
450 1 0.49638 0.516715 0.0810048
473 1 0.595071 0.596124 0.0800504
454 1 0.692174 0.498517 0.0798249
477 1 0.799212 0.599432 0.0802232
457 1 0.828483 0.411293 0.0786364
458 1 0.903042 0.508199 0.0799611
383 1 0.103547 0.798226 0.0718246
462 1 0.104773 0.691551 0.0782419
466 1 0.303318 0.700486 0.0784144
485 1 0.202788 0.78378 0.0797778
489 1 0.385202 0.793045 0.079383
469 1 0.400635 0.600584 0.0783985
470 1 0.501899 0.697126 0.0787956
375 1 0.700847 0.609895 0.0706794
380 1 0.782022 0.710767 0.0709619
474 1 0.694274 0.699341 0.0804108
379 1 0.882863 0.60006 0.070662
364 1 0.998324 0.687601 0.0719295
478 1 0.898728 0.717169 0.0788248
482 1 0.10527 0.913366 0.0807841
486 1 0.285597 0.889734 0.0803869
409 1 0.405399 0.985569 0.0795341
490 1 0.523221 0.920399 0.0794133
493 1 0.588936 0.800816 0.0783409
494 1 0.712789 0.925818 0.080443
384 1 0.994504 0.937001 0.0721774
399 1 0.889176 0.813574 0.070766
481 1 0.990845 0.821085 0.0781041
497 1 0.824684 0.823199 0.0811601
498 1 0.917869 0.926874 0.0811979
502 1 0.103345 0.0987165 0.102325
403 1 0.136925 0.00419929 0.0898961
505 1 0.19904 0.00852483 0.100236
408 1 0.182322 0.117208 0.0877516
404 1 0.0198347 0.105311 0.0913962
521 1 0.0177631 0.196564 0.10053
501 1 0.0219141 6.6704e-05 0.100915
506 1 0.307352 0.109804 0.0990838
407 1 0.298284 0.0241415 0.0897997
412 1 0.409332 0.108745 0.0904637
510 1 0.498603 0.117205 0.101067
411 1 0.512226 0.00653956 0.0889257
416 1 0.580009 0.128171 0.0899814
509 1 0.409091 0.0196779 0.101069
513 1 0.607438 0.00352205 0.101009
514 1 0.68686 0.114409 0.0987302
517 1 0.798381 0.0183748 0.0979233
415 1 0.706536 0.0104173 0.0892743
420 1 0.787643 0.134272 0.0891701
518 1 0.919509 0.122673 0.0995573
419 1 0.929608 0.0152949 0.0914526
424 1 0.00297947 0.305847 0.0886193
423 1 0.0918423 0.216232 0.0898555
522 1 0.129005 0.300063 0.100954
428 1 0.19019 0.308307 0.0894485
541 1 0.00827561 0.387947 0.0998538
443 1 0.0939246 0.396262 0.0897597
427 1 0.299158 0.215603 0.0890898
525 1 0.212809 0.200718 0.0977146
526 1 0.303506 0.299152 0.098693
432 1 0.391947 0.305527 0.0905077
529 1 0.391971 0.211889 0.0987304
431 1 0.503821 0.223489 0.0908679
530 1 0.514832 0.320238 0.100824
549 1 0.40162 0.391388 0.0995848
533 1 0.597949 0.212653 0.100962
435 1 0.683968 0.212128 0.0911528
537 1 0.794509 0.208063 0.0987348
436 1 0.606382 0.307945 0.0904261
534 1 0.707511 0.314709 0.0998001
440 1 0.784422 0.314211 0.0883158
439 1 0.902231 0.204273 0.0885954
557 1 0.819181 0.384944 0.0990328
538 1 0.917122 0.291512 0.0982959
542 1 0.106141 0.487378 0.100421
561 1 0.0137451 0.593151 0.0980816
448 1 0.198913 0.493615 0.0908631
463 1 0.109548 0.575072 0.0901567
565 1 0.214265 0.589849 0.100145
447 1 0.293591 0.406083 0.0892474
545 1 0.219512 0.406729 0.0999299
546 1 0.314186 0.489944 0.0989046
452 1 0.389514 0.489451 0.0897032
467 1 0.296555 0.595946 0.0900027
451 1 0.507734 0.401309 0.0913246
550 1 0.499132 0.498217 0.100977
456 1 0.58852 0.488225 0.0908657
569 1 0.408703 0.597862 0.0996751
455 1 0.692983 0.414917 0.0899983
553 1 0.611742 0.414725 0.10094
554 1 0.686048 0.511366 0.099
577 1 0.796746 0.582497 0.0999622
444 1 0.988574 0.509049 0.0901023
459 1 0.905017 0.405009 0.0890755
460 1 0.816666 0.492535 0.0901031
558 1 0.899695 0.509519 0.0998605
479 1 0.904563 0.599159 0.088423
562 1 0.0986623 0.689523 0.0978674
468 1 0.185693 0.677624 0.0885427
464 1 0.016014 0.698484 0.0880938
581 1 0.00211526 0.797294 0.0999527
566 1 0.298641 0.695032 0.0981049
472 1 0.387583 0.693191 0.0883695
585 1 0.200292 0.777982 0.100334
471 1 0.489374 0.622221 0.0898684
570 1 0.492161 0.717683 0.098803
476 1 0.598358 0.701813 0.0884267
573 1 0.589543 0.607472 0.0984784
589 1 0.403578 0.798239 0.100099
593 1 0.593688 0.798078 0.0973719
475 1 0.696679 0.612452 0.089002
574 1 0.68954 0.704857 0.0991353
480 1 0.805243 0.708369 0.0894442
578 1 0.9212 0.698337 0.0970269
483 1 0.102552 0.807571 0.0877947
582 1 0.111602 0.898784 0.10048
484 1 0.0221804 0.917939 0.091894
487 1 0.294746 0.804362 0.0910642
488 1 0.205199 0.904978 0.0911541
586 1 0.288614 0.888739 0.101532
492 1 0.3856 0.920279 0.0916746
491 1 0.499087 0.814355 0.0879344
590 1 0.518106 0.897798 0.100115
496 1 0.611094 0.894462 0.0887714
495 1 0.710706 0.810434 0.0877208
594 1 0.711505 0.902433 0.0980588
597 1 0.796935 0.80994 0.0979554
500 1 0.818843 0.914904 0.0905864
499 1 0.900167 0.807779 0.0905504
598 1 0.909953 0.897581 0.0996857
602 1 0.0812907 0.0898163 0.121271
508 1 0.197129 0.101293 0.110249
625 1 0.184761 0.186561 0.120764
605 1 0.213719 0.0034267 0.119453
606 1 0.313278 0.105036 0.11973
512 1 0.388874 0.111415 0.108988
629 1 0.421064 0.192936 0.120307
610 1 0.512765 0.0969393 0.117126
516 1 0.613285 0.0973192 0.109658
614 1 0.729951 0.103397 0.117702
535 1 0.709668 0.192618 0.108888
515 1 0.712181 0.00669945 0.108234
520 1 0.800189 0.109698 0.107915
504 1 0.997652 0.0746141 0.110635
618 1 0.872953 0.101452 0.118649
621 1 0.997463 0.193499 0.12043
539 1 0.904702 0.189639 0.109865
519 1 0.895413 0.0120429 0.107185
523 1 0.102123 0.201353 0.111254
622 1 0.0886483 0.303751 0.119717
528 1 0.190522 0.299552 0.112601
524 1 0.0171236 0.298172 0.109346
543 1 0.114202 0.397583 0.110492
527 1 0.278523 0.20306 0.108023
626 1 0.296827 0.284936 0.118469
547 1 0.296371 0.38438 0.109763
649 1 0.377491 0.389467 0.119916
532 1 0.400044 0.297844 0.109992
531 1 0.492692 0.209914 0.109565
630 1 0.499102 0.285892 0.11989
633 1 0.595749 0.207061 0.118462
536 1 0.593892 0.302548 0.109806
634 1 0.702407 0.30276 0.118877
637 1 0.807117 0.207813 0.118059
540 1 0.823787 0.294369 0.108069
638 1 0.907879 0.291355 0.119133
641 1 0.998073 0.388753 0.119807
559 1 0.923901 0.396627 0.108978
645 1 0.192603 0.412241 0.121359
642 1 0.0939797 0.489293 0.121755
563 1 0.106411 0.584329 0.110287
548 1 0.212158 0.490027 0.108837
646 1 0.302034 0.497573 0.118836
552 1 0.389081 0.474063 0.110065
669 1 0.381987 0.599532 0.121708
551 1 0.506222 0.403439 0.111243
650 1 0.48057 0.532759 0.117264
555 1 0.710756 0.419841 0.109965
653 1 0.606628 0.400265 0.120633
556 1 0.607641 0.506441 0.10994
654 1 0.697501 0.51885 0.118454
544 1 0.99667 0.49985 0.10918
657 1 0.828578 0.400324 0.117912
560 1 0.810691 0.49489 0.110116
658 1 0.924109 0.500818 0.119662
665 1 0.195962 0.602468 0.12085
662 1 0.0869461 0.703054 0.121519
564 1 0.0117581 0.696033 0.108378
583 1 0.117726 0.793653 0.110603
568 1 0.217258 0.674688 0.109253
567 1 0.320837 0.604158 0.109331
666 1 0.299647 0.682533 0.120554
685 1 0.223268 0.786158 0.118404
572 1 0.387783 0.698441 0.109075
689 1 0.385388 0.780077 0.119066
587 1 0.302543 0.78761 0.108664
571 1 0.497769 0.627734 0.107938
670 1 0.490714 0.705027 0.120424
673 1 0.594392 0.623937 0.119791
591 1 0.496011 0.796451 0.10973
575 1 0.687635 0.615779 0.10891
576 1 0.60394 0.711868 0.10959
674 1 0.698785 0.716182 0.117667
677 1 0.796844 0.613187 0.116045
693 1 0.601417 0.791138 0.119288
579 1 0.911077 0.609309 0.109694
661 1 0.992866 0.62044 0.120293
580 1 0.804565 0.699575 0.105536
678 1 0.877691 0.716248 0.117141
599 1 0.902883 0.795416 0.108262
503 1 0.104713 0.998989 0.110693
682 1 0.112475 0.882867 0.120908
584 1 0.00479302 0.889427 0.109785
588 1 0.198061 0.900339 0.110685
507 1 0.302212 0.997269 0.109357
686 1 0.326128 0.907232 0.119147
609 1 0.406175 0.999654 0.116953
511 1 0.520338 0.999888 0.109325
592 1 0.402234 0.91554 0.106674
690 1 0.463731 0.886346 0.117696
596 1 0.593061 0.891905 0.111045
613 1 0.610439 0.9998 0.121077
595 1 0.689236 0.805279 0.108137
694 1 0.698109 0.909631 0.118761
697 1 0.787981 0.818327 0.117729
600 1 0.78818 0.904611 0.108543
617 1 0.799416 0.993824 0.118507
601 1 0.997759 0.980052 0.118911
681 1 0.99953 0.825275 0.120673
698 1 0.898668 0.903838 0.116779
608 1 0.185806 0.0862131 0.12801
721 1 0.0070279 0.196376 0.139861
702 1 0.0984626 0.0920199 0.137896
607 1 0.314168 0.00170412 0.129223
627 1 0.302846 0.196302 0.128073
706 1 0.31161 0.13229 0.139124
725 1 0.204536 0.197374 0.137627
612 1 0.420736 0.0899421 0.128227
631 1 0.504101 0.194189 0.129656
709 1 0.414733 0.0223283 0.139859
710 1 0.535003 0.0946384 0.139853
616 1 0.614812 0.107284 0.128369
615 1 0.717439 0.00863519 0.128969
713 1 0.615349 0.00556732 0.136746
635 1 0.707901 0.191384 0.128953
620 1 0.799809 0.105047 0.128768
604 1 0.994819 0.0896384 0.130962
718 1 0.897415 0.0614953 0.138068
639 1 0.883943 0.196386 0.130008
619 1 0.894145 0.00320411 0.126433
737 1 0.800881 0.181635 0.139698
623 1 0.0968314 0.229973 0.130781
643 1 0.111216 0.38703 0.130885
628 1 0.213747 0.298929 0.129534
632 1 0.399676 0.289264 0.127878
726 1 0.307836 0.30256 0.14014
647 1 0.307107 0.390643 0.129526
749 1 0.39448 0.391808 0.137917
729 1 0.409342 0.209731 0.138988
730 1 0.506293 0.306411 0.138056
733 1 0.62705 0.2035 0.139988
636 1 0.600255 0.302308 0.129592
640 1 0.785079 0.307666 0.128027
734 1 0.711671 0.323726 0.138442
624 1 0.978602 0.286452 0.129942
741 1 0.98297 0.398241 0.139047
738 1 0.866024 0.303576 0.137794
659 1 0.89331 0.385866 0.129294
742 1 0.0692822 0.511024 0.139976
648 1 0.190922 0.514773 0.132257
644 1 0.00446974 0.473363 0.129803
745 1 0.233121 0.414366 0.139708
652 1 0.38193 0.48901 0.128958
667 1 0.301052 0.584598 0.131331
651 1 0.48257 0.404461 0.128817
750 1 0.509946 0.497401 0.138521
656 1 0.589785 0.531511 0.128623
655 1 0.702714 0.421131 0.12802
753 1 0.608554 0.418648 0.139211
754 1 0.699079 0.509199 0.138066
660 1 0.801534 0.53086 0.127537
758 1 0.911497 0.511062 0.139441
757 1 0.811503 0.431681 0.139468
679 1 0.913807 0.596906 0.129401
663 1 0.0596615 0.600431 0.129942
668 1 0.194298 0.684361 0.131466
683 1 0.101683 0.792163 0.130329
766 1 0.298498 0.703144 0.138522
672 1 0.396475 0.697174 0.130523
671 1 0.497947 0.607878 0.128772
676 1 0.592018 0.712976 0.130682
793 1 0.59135 0.794937 0.139858
675 1 0.687236 0.618338 0.129605
774 1 0.697062 0.702286 0.140139
777 1 0.807747 0.614855 0.138062
664 1 0.98323 0.697415 0.129984
680 1 0.824721 0.69522 0.127994
778 1 0.894009 0.732853 0.13968
603 1 0.0975322 0.987601 0.128509
701 1 0.0082794 0.988848 0.139431
782 1 0.105152 0.904681 0.13962
705 1 0.200206 0.992233 0.136216
687 1 0.303345 0.805021 0.128199
789 1 0.3829 0.800569 0.138582
688 1 0.226111 0.896494 0.128791
785 1 0.208144 0.821797 0.138635
786 1 0.318045 0.918521 0.138942
611 1 0.510025 0.994794 0.128202
691 1 0.488911 0.802528 0.12883
692 1 0.422989 0.903845 0.130675
790 1 0.510542 0.913795 0.139526
695 1 0.715659 0.800211 0.127095
696 1 0.600775 0.890829 0.127556
794 1 0.671321 0.891275 0.138324
797 1 0.789609 0.816846 0.136617
717 1 0.7654 0.981801 0.140218
684 1 0.992198 0.911207 0.129547
781 1 0.99834 0.813946 0.137867
699 1 0.893108 0.80249 0.127502
700 1 0.807082 0.902301 0.128407
703 1 0.113675 0.00937365 0.148452
802 1 0.10799 0.0980587 0.157346
801 1 0.00973669 0.0155129 0.157641
708 1 0.206662 0.101627 0.145441
707 1 0.302043 0.025074 0.146587
712 1 0.392861 0.111711 0.148645
825 1 0.222936 0.181848 0.157292
711 1 0.496542 0.0144444 0.151202
714 1 0.702606 0.0908624 0.141874
716 1 0.607555 0.107877 0.150718
704 1 0.97895 0.0983555 0.147551
720 1 0.802611 0.0866901 0.149047
739 1 0.890973 0.190836 0.147459
821 1 0.982163 0.17737 0.157571
723 1 0.0913352 0.203814 0.149262
722 1 0.0695112 0.315824 0.140786
728 1 0.189496 0.317973 0.146295
727 1 0.311318 0.210751 0.149273
731 1 0.505677 0.210362 0.147653
732 1 0.411193 0.338463 0.14928
830 1 0.49952 0.301537 0.157789
736 1 0.591224 0.305326 0.149006
829 1 0.402775 0.214139 0.157531
735 1 0.708402 0.217508 0.153157
724 1 0.969238 0.287553 0.147794
740 1 0.81552 0.308013 0.149158
743 1 0.0682569 0.401344 0.151703
748 1 0.178862 0.49306 0.149441
746 1 0.302465 0.510598 0.141782
769 1 0.388759 0.596421 0.141464
747 1 0.273062 0.40593 0.151157
767 1 0.314845 0.596953 0.150513
751 1 0.527914 0.416706 0.149585
752 1 0.401118 0.47761 0.148145
771 1 0.503154 0.591659 0.149594
773 1 0.618459 0.595252 0.14127
755 1 0.719311 0.410038 0.149326
756 1 0.619748 0.508722 0.150391
759 1 0.88721 0.406321 0.148667
744 1 0.997932 0.527393 0.150009
760 1 0.802445 0.508738 0.149639
763 1 0.094002 0.61339 0.149301
762 1 0.0827487 0.720343 0.140708
768 1 0.198412 0.713212 0.150517
765 1 0.211808 0.604827 0.142746
787 1 0.296362 0.787609 0.147858
770 1 0.516689 0.681502 0.140458
772 1 0.422079 0.696546 0.149801
791 1 0.499818 0.790185 0.149578
775 1 0.732769 0.612001 0.148574
776 1 0.608128 0.698166 0.150363
761 1 0.978753 0.621218 0.140931
779 1 0.883612 0.610699 0.14964
764 1 0.983822 0.705822 0.14938
780 1 0.803264 0.719254 0.147847
783 1 0.089527 0.80043 0.15004
788 1 0.201507 0.916727 0.148475
792 1 0.394823 0.903122 0.148769
886 1 0.297499 0.895928 0.157429
809 1 0.368888 0.995912 0.157586
796 1 0.575083 0.895092 0.149456
715 1 0.673232 0.992269 0.152017
795 1 0.68042 0.804832 0.149008
800 1 0.782812 0.894926 0.149152
719 1 0.88106 0.991612 0.150846
799 1 0.890311 0.806214 0.149612
784 1 0.993133 0.890117 0.147981
798 1 0.881378 0.902549 0.141399
804 1 0.00983809 0.109512 0.168692
823 1 0.107361 0.198535 0.166286
808 1 0.20955 0.0792624 0.168533
806 1 0.310699 0.0961107 0.160845
812 1 0.410485 0.139781 0.167573
810 1 0.500661 0.119117 0.158988
816 1 0.573784 0.111449 0.170959
811 1 0.473192 0.0218643 0.167352
814 1 0.70679 0.08731 0.159373
813 1 0.6038 0.0253196 0.162179
833 1 0.606093 0.190352 0.15999
835 1 0.700956 0.197824 0.166998
815 1 0.699709 0.0117617 0.170319
820 1 0.811651 0.0848406 0.168452
818 1 0.896009 0.0919867 0.158302
837 1 0.815332 0.184572 0.15945
819 1 0.917862 0.0266363 0.168568
822 1 0.115809 0.302589 0.158307
843 1 0.0869234 0.399041 0.168367
824 1 0.0174304 0.291092 0.166703
828 1 0.199101 0.319626 0.169685
827 1 0.273979 0.201684 0.169861
826 1 0.301103 0.293494 0.159116
847 1 0.301289 0.395977 0.169332
832 1 0.391914 0.313453 0.172057
831 1 0.503101 0.237011 0.168634
851 1 0.50021 0.372081 0.168484
836 1 0.617113 0.293773 0.169023
834 1 0.715416 0.326466 0.15921
840 1 0.800708 0.300849 0.168272
839 1 0.926368 0.213518 0.169011
838 1 0.890828 0.291683 0.158758
859 1 0.883575 0.397394 0.169825
842 1 0.0708665 0.514245 0.16102
845 1 0.176032 0.424932 0.160631
848 1 0.172928 0.50962 0.168967
865 1 0.174523 0.595136 0.158267
846 1 0.270252 0.502241 0.16184
849 1 0.393058 0.411863 0.161353
869 1 0.419295 0.580386 0.159857
852 1 0.405216 0.492729 0.170509
850 1 0.499469 0.483326 0.160188
856 1 0.583189 0.49492 0.169248
873 1 0.591156 0.589302 0.160582
853 1 0.602562 0.401626 0.160618
855 1 0.718703 0.427718 0.168209
854 1 0.718423 0.520623 0.158248
875 1 0.694615 0.588894 0.170096
841 1 0.956157 0.402026 0.159187
844 1 0.986547 0.523274 0.171026
860 1 0.808212 0.507799 0.171192
857 1 0.808782 0.401209 0.159071
858 1 0.887852 0.506083 0.159581
863 1 0.0953094 0.620278 0.170672
862 1 0.0848638 0.692735 0.160598
864 1 0.00817572 0.702148 0.170064
868 1 0.188804 0.704496 0.170154
867 1 0.28909 0.604818 0.168927
866 1 0.298801 0.695735 0.159167
872 1 0.40837 0.695013 0.169011
871 1 0.504012 0.612101 0.170381
870 1 0.507042 0.692449 0.160131
891 1 0.501351 0.789563 0.169093
876 1 0.594509 0.696903 0.168577
874 1 0.686185 0.69138 0.160342
897 1 0.774603 0.794566 0.158428
880 1 0.786503 0.708393 0.168461
861 1 0.965705 0.605941 0.161351
877 1 0.814938 0.625766 0.159542
879 1 0.911433 0.629169 0.172297
881 1 0.993581 0.793812 0.158727
878 1 0.897286 0.724247 0.158962
899 1 0.884615 0.798843 0.168821
803 1 0.103471 0.997322 0.166784
883 1 0.103694 0.801299 0.167281
882 1 0.0899382 0.90897 0.158566
888 1 0.181617 0.898276 0.169602
885 1 0.202253 0.81924 0.159535
807 1 0.303269 0.985501 0.168342
805 1 0.212744 0.994437 0.158902
887 1 0.298849 0.816141 0.16844
892 1 0.399202 0.898051 0.169288
893 1 0.584528 0.812259 0.160287
889 1 0.405585 0.802046 0.160416
890 1 0.480592 0.908282 0.158331
817 1 0.79119 0.990532 0.159771
895 1 0.69577 0.810468 0.168189
896 1 0.60454 0.914668 0.168408
894 1 0.703053 0.904695 0.160132
884 1 0.992371 0.905773 0.167361
900 1 0.803534 0.926572 0.170051
898 1 0.897653 0.90003 0.158141
902 1 0.108314 0.109902 0.176434
903 1 0.114766 0.0214677 0.18935
925 1 0.18124 0.199008 0.178613
908 1 0.207371 0.104887 0.1861
906 1 0.306213 0.094437 0.176254
912 1 0.383981 0.0970138 0.190271
927 1 0.308352 0.198547 0.188071
907 1 0.310634 0.00319262 0.189954
910 1 0.478007 0.116423 0.18066
916 1 0.58317 0.112689 0.188593
909 1 0.403347 0.00727845 0.178994
911 1 0.504586 0.0051187 0.188933
913 1 0.566567 0.0117219 0.178314
914 1 0.689137 0.114925 0.17771
915 1 0.689236 0.0142011 0.190447