ITEM: TIMESTEP
25000
ITEM: NUMBER OF ATOMS
5000
ITEM: BOX BOUNDS pp pp pp
0.0000000000000000e+00 8.0180007035687204e+00
0.0000000000000000e+00 8.0180007035687204e+00
0.0000000000000000e+00 8.0180007035687197e+01
ITEM: ATOMS id type xs ys zs
23 1 0.101808 0.19644 0.0100678
8 1 0.217968 0.100289 0.00924647
12 1 0.396578 0.0962736 0.00867949
6 1 0.308367 0.106611 0.000546277
9 1 0.393783 0.00319409 0.000869899
31 1 0.490923 0.19013 0.00822608
13 1 0.596344 0.00729875 0.000485198
16 1 0.607488 0.0776267 0.00986899
20 1 0.790877 0.0808147 0.00985576
35 1 0.687846 0.174987 0.0112723
4 1 0.98386 0.0870367 0.00952585
39 1 0.890834 0.180216 0.00857398
43 1 0.0993179 0.392419 0.00853616
28 1 0.196569 0.291543 0.00833418
24 1 0.00264627 0.299466 0.0105427
45 1 0.194313 0.390133 0.000608497
27 1 0.305435 0.203405 0.00967379
32 1 0.392276 0.297322 0.00901836
51 1 0.489676 0.394334 0.0115708
36 1 0.602502 0.277247 0.00846351
40 1 0.78214 0.269154 0.0107395
55 1 0.709834 0.388832 0.00869845
41 1 0.984697 0.387228 0.00132922
59 1 0.87987 0.365505 0.0089698
48 1 0.199667 0.495448 0.00893746
47 1 0.297535 0.406326 0.00890797
52 1 0.388415 0.50217 0.00824088
67 1 0.290012 0.584304 0.0103896
69 1 0.375739 0.587163 0.000395172
56 1 0.591229 0.482266 0.00870553
71 1 0.48642 0.585432 0.00727285
73 1 0.612254 0.583649 0.000136593
77 1 0.770429 0.559804 0.000384772
60 1 0.80137 0.484494 0.0113375
44 1 0.974309 0.491258 0.00958168
79 1 0.882849 0.574593 0.00780836
63 1 0.111363 0.603049 0.00871011
68 1 0.193 0.689622 0.00628348
64 1 0.0118967 0.680105 0.00956172
72 1 0.373029 0.692424 0.0103428
76 1 0.575896 0.68727 0.00816277
170 1 0.487798 0.689156 0.0174948
193 1 0.583952 0.78082 0.0158823
75 1 0.681889 0.612569 0.00966089
95 1 0.700286 0.775025 0.00904646
80 1 0.806297 0.681263 0.00712803
99 1 0.89883 0.785456 0.00837888
3 1 0.0967549 0.983342 0.0100732
83 1 0.0895508 0.80166 0.00976824
88 1 0.199593 0.88531 0.00869771
5 1 0.190956 0.991022 0.000721886
7 1 0.307678 0.998676 0.00992895
87 1 0.295994 0.801802 0.00855956
92 1 0.380026 0.890585 0.00998878
105 1 0.207551 0.988181 0.0174487
86 1 0.301893 0.899626 4.43816e-05
11 1 0.498944 0.990354 0.00854679
91 1 0.481212 0.800553 0.00809675
96 1 0.577157 0.890321 0.0084915
15 1 0.693493 0.967728 0.00864489
194 1 0.698643 0.871489 0.0170452
19 1 0.899902 0.978024 0.0104847
84 1 0.991325 0.895332 0.00942621
100 1 0.801367 0.885863 0.00939977
102 1 0.113164 0.0864613 0.0189558
104 1 0.0159788 0.0882665 0.0280272
123 1 0.106308 0.181096 0.0290988
108 1 0.219443 0.0954895 0.0290881
106 1 0.30835 0.0893405 0.0192493
112 1 0.395587 0.0771124 0.0293585
127 1 0.314165 0.183746 0.0280755
110 1 0.484287 0.0733693 0.0193871
116 1 0.59603 0.0816832 0.0277069
129 1 0.404779 0.198402 0.0187993
131 1 0.482218 0.181609 0.0281101
133 1 0.574419 0.169845 0.0184547
114 1 0.703348 0.0693476 0.0187111
120 1 0.799831 0.0757503 0.0299573
135 1 0.705831 0.165411 0.028058
121 1 0.994008 0.190284 0.0176769
118 1 0.903951 0.0955979 0.02002
137 1 0.804787 0.163742 0.0190261
139 1 0.879529 0.180601 0.030742
122 1 0.0874106 0.285123 0.0213925
143 1 0.0701287 0.395367 0.0285568
145 1 0.180642 0.374607 0.020657
128 1 0.214271 0.281178 0.0287589
125 1 0.208365 0.20747 0.0186573
126 1 0.305584 0.300405 0.0181059
147 1 0.295283 0.38656 0.030468
130 1 0.50702 0.289427 0.0176958
132 1 0.406512 0.284363 0.0287639
136 1 0.587834 0.30445 0.0284444
151 1 0.493565 0.395165 0.0279073
134 1 0.680762 0.275707 0.0195657
140 1 0.78941 0.282217 0.0271324
153 1 0.616417 0.395545 0.0185534
155 1 0.705648 0.395489 0.0281843
124 1 0.989207 0.279594 0.0307251
138 1 0.894305 0.279472 0.0179103
141 1 0.982125 0.39645 0.0187347
159 1 0.904703 0.377707 0.0288918
157 1 0.812876 0.384749 0.0196011
142 1 0.0829621 0.488803 0.0187603
163 1 0.0915417 0.593109 0.029028
165 1 0.171112 0.580117 0.0198357
161 1 0.00733953 0.594186 0.0191213
148 1 0.200345 0.481712 0.0285061
146 1 0.299817 0.465667 0.0190442
149 1 0.396317 0.401443 0.019862
167 1 0.286147 0.592134 0.0291125
150 1 0.486627 0.50155 0.0195725
152 1 0.409891 0.492581 0.0310678
171 1 0.509444 0.582693 0.029714
173 1 0.579495 0.589427 0.0195572
156 1 0.604682 0.473341 0.0295632
154 1 0.690201 0.49974 0.018654
160 1 0.77704 0.501594 0.0280511
175 1 0.680444 0.582947 0.0297753
144 1 0.982586 0.507458 0.0305856
158 1 0.886891 0.501721 0.0200412
162 1 0.109931 0.701759 0.0190231
168 1 0.183874 0.700265 0.0305033
164 1 0.00727655 0.687831 0.0292071
183 1 0.0944123 0.783243 0.0289346
166 1 0.250831 0.670558 0.0192565
172 1 0.399018 0.697101 0.0297805
169 1 0.378559 0.603657 0.0196985
187 1 0.281798 0.780476 0.0295673
189 1 0.388315 0.790081 0.0184498
176 1 0.585119 0.699903 0.0288318
191 1 0.489484 0.790947 0.0274745
174 1 0.679539 0.688965 0.0206401
177 1 0.78325 0.60246 0.018834
180 1 0.794656 0.677647 0.0306313
197 1 0.789593 0.769217 0.0190539
195 1 0.676396 0.785021 0.0296811
179 1 0.898756 0.601191 0.029466
178 1 0.899014 0.661378 0.0177251
181 1 0.981213 0.755819 0.0189982
199 1 0.882513 0.773131 0.0285975
103 1 0.097282 0.994611 0.0284954
185 1 0.19324 0.802674 0.0188246
182 1 0.0988908 0.876437 0.0203412
188 1 0.194216 0.889577 0.0300825
107 1 0.308634 0.986919 0.0305243
186 1 0.30066 0.894506 0.0206496
192 1 0.394758 0.887283 0.028294
109 1 0.404861 0.983443 0.0192573
111 1 0.482817 0.980458 0.0294006
113 1 0.59552 0.979547 0.0193138
190 1 0.495152 0.891288 0.0189082
196 1 0.585176 0.887254 0.0289606
115 1 0.677496 0.978902 0.0294476
200 1 0.798659 0.888539 0.0287331
117 1 0.80635 0.979172 0.0196688
119 1 0.884104 0.98413 0.0316982
101 1 0.999851 0.984785 0.0203941
184 1 0.986181 0.890603 0.0289524
198 1 0.90003 0.87864 0.0187831
202 1 0.0994303 0.0918216 0.0390951
208 1 0.174046 0.0788425 0.0493376
204 1 0.00464165 0.0814938 0.0503955
223 1 0.0999759 0.194271 0.0483679
225 1 0.197893 0.182708 0.0378426
221 1 0.000210122 0.167002 0.0377513
206 1 0.288652 0.0779962 0.0408163
227 1 0.280109 0.190418 0.0474256
229 1 0.399231 0.18278 0.0393414
212 1 0.400032 0.0739858 0.0486841
210 1 0.493629 0.0757506 0.0378334
216 1 0.589622 0.0856888 0.0480319
231 1 0.481174 0.179588 0.0488465
233 1 0.571153 0.182574 0.0381393
214 1 0.694849 0.102962 0.0402611
237 1 0.796826 0.187084 0.0398178
220 1 0.800107 0.107811 0.0498773
218 1 0.898754 0.0975107 0.0402645
239 1 0.927329 0.187393 0.0489567
222 1 0.105795 0.289427 0.035434
224 1 0.00124284 0.303871 0.047322
228 1 0.192369 0.302634 0.0467822
243 1 0.0970409 0.389603 0.0469011
245 1 0.186146 0.391116 0.0365931
226 1 0.293417 0.282434 0.0376769
232 1 0.385647 0.279119 0.0484032
247 1 0.298718 0.370108 0.0497827
249 1 0.395831 0.377465 0.037692
230 1 0.485342 0.285785 0.0390097
236 1 0.579462 0.28547 0.0490573
251 1 0.494764 0.382074 0.0495394
235 1 0.680442 0.205632 0.047216
234 1 0.691778 0.28221 0.0365903
240 1 0.789257 0.279102 0.0485352
257 1 0.789817 0.386363 0.0398717
255 1 0.688892 0.364461 0.0499444
253 1 0.603497 0.376007 0.0394824
238 1 0.890249 0.291235 0.0393359
259 1 0.908586 0.38148 0.0488772
242 1 0.0920705 0.488013 0.0392556
248 1 0.19156 0.47893 0.0509579
244 1 0.00317778 0.470167 0.0503081
263 1 0.104573 0.5786 0.0486467
265 1 0.195275 0.583205 0.0373359
246 1 0.288063 0.489798 0.0390446
269 1 0.382408 0.597427 0.0390971
267 1 0.265405 0.583576 0.0471593
252 1 0.396841 0.491792 0.049746
250 1 0.501151 0.470872 0.0406229
271 1 0.496257 0.593469 0.0510139
273 1 0.576609 0.583111 0.0403618
256 1 0.602128 0.477065 0.0493385
254 1 0.706875 0.481019 0.039967
275 1 0.688356 0.582978 0.0492574
260 1 0.801681 0.465836 0.0495067
241 1 0.988383 0.412747 0.0397225
258 1 0.879442 0.49763 0.0369928
277 1 0.803349 0.590469 0.0406331
279 1 0.907002 0.579773 0.0507316
262 1 0.105284 0.687294 0.0405846
264 1 0.0059594 0.680982 0.0500287
283 1 0.0867115 0.78877 0.0492987
268 1 0.191649 0.704733 0.0492065
285 1 0.177771 0.791996 0.0396689
266 1 0.27644 0.696027 0.0405483
287 1 0.30147 0.789234 0.0494857
272 1 0.402092 0.706862 0.0479033
270 1 0.494744 0.702332 0.0388289
276 1 0.594576 0.678536 0.0512346
291 1 0.493982 0.796726 0.0493201
293 1 0.588385 0.789544 0.0391216
274 1 0.670521 0.687734 0.0380618
280 1 0.782957 0.685092 0.0496271
295 1 0.68379 0.773398 0.0476487
261 1 0.998095 0.60869 0.0395865
278 1 0.887035 0.681909 0.0412405
297 1 0.800482 0.776716 0.0394983
299 1 0.87691 0.794868 0.0499228
281 1 0.974516 0.779509 0.0404742
203 1 0.0723778 0.980925 0.0475201
205 1 0.188942 0.983656 0.0398597
282 1 0.0821756 0.893929 0.0393589
288 1 0.193119 0.88608 0.0487529
209 1 0.399248 0.985345 0.0395011
207 1 0.301489 0.989308 0.0496319
286 1 0.294528 0.889248 0.0395935
292 1 0.39088 0.882602 0.0488067
289 1 0.398686 0.801134 0.0370689
211 1 0.481723 0.974895 0.0499519
290 1 0.5006 0.891861 0.0403242
296 1 0.59857 0.873719 0.0499333
213 1 0.60067 0.979176 0.0391212
215 1 0.688246 0.976023 0.0499127
217 1 0.774818 0.976016 0.0388191
294 1 0.70254 0.870663 0.0387079
300 1 0.788843 0.898922 0.0507971
201 1 0.983907 0.993578 0.0384819
219 1 0.888392 0.985431 0.0494564
284 1 0.985035 0.885088 0.0499327
298 1 0.887847 0.878028 0.0398891
302 1 0.0964191 0.0974662 0.0595119
308 1 0.187051 0.0744969 0.0687609
321 1 0.0114423 0.191753 0.0605807
325 1 0.196364 0.18584 0.0601874
306 1 0.29376 0.0911325 0.0590904
312 1 0.393924 0.0900453 0.0688351
329 1 0.379449 0.179901 0.0598453
310 1 0.497646 0.0823433 0.058051
331 1 0.515971 0.172974 0.0675625
314 1 0.708246 0.0822774 0.0588849
333 1 0.60329 0.198879 0.0581748
335 1 0.70651 0.184836 0.0692296
320 1 0.814851 0.0960331 0.0693517
318 1 0.904135 0.0904143 0.059355
339 1 0.91647 0.180296 0.0690938
337 1 0.808277 0.196042 0.0599249
319 1 0.91323 0.00576329 0.0697638
322 1 0.0915982 0.279964 0.0575709
345 1 0.191199 0.379007 0.0601188
324 1 0.010531 0.277645 0.0697487
341 1 0.00523692 0.376175 0.0585575
328 1 0.17418 0.288736 0.0690265
326 1 0.280387 0.268572 0.0584331
327 1 0.298107 0.206493 0.0696966
347 1 0.29149 0.393048 0.0694368
330 1 0.511295 0.286014 0.0580432
351 1 0.500286 0.381505 0.0668363
332 1 0.411577 0.273943 0.0671462
336 1 0.5988 0.29055 0.0692986
334 1 0.699383 0.285002 0.0595148
355 1 0.701525 0.382048 0.0700089
353 1 0.60854 0.37257 0.0596985
340 1 0.793337 0.28699 0.0683077
338 1 0.907571 0.283206 0.0591991
357 1 0.80766 0.367135 0.0582021
342 1 0.0875322 0.478893 0.0596408
361 1 0.00869949 0.582939 0.0583264
363 1 0.100655 0.585419 0.0684202
343 1 0.096415 0.403698 0.0698692
346 1 0.291432 0.496014 0.0590117
349 1 0.394802 0.403264 0.059497
369 1 0.375055 0.580913 0.057924
365 1 0.202623 0.593834 0.0599706
348 1 0.205962 0.505313 0.0696576
350 1 0.505695 0.477214 0.0588123
352 1 0.409214 0.506834 0.068635
356 1 0.597319 0.469851 0.0688806
373 1 0.597382 0.573777 0.0596566
371 1 0.5086 0.596584 0.0676235
354 1 0.71405 0.476983 0.0603038
375 1 0.710588 0.582437 0.0696566
377 1 0.797979 0.583058 0.0584375
358 1 0.910149 0.470099 0.0591283
379 1 0.911653 0.580559 0.0661867
362 1 0.0962692 0.69337 0.0577649
368 1 0.19456 0.676 0.0698656
385 1 0.186804 0.791594 0.0590568
366 1 0.291816 0.684127 0.0582928
372 1 0.389845 0.691246 0.0678896
389 1 0.394519 0.795299 0.0573977
387 1 0.287535 0.785182 0.0663513
370 1 0.490249 0.700691 0.0595488
393 1 0.578699 0.785508 0.0592144
391 1 0.503389 0.785974 0.0699817
376 1 0.60237 0.679513 0.0688941
374 1 0.696989 0.669608 0.059813
380 1 0.792436 0.678643 0.0686299
397 1 0.783699 0.779309 0.0590347
395 1 0.701339 0.76945 0.0688291
378 1 0.891565 0.69598 0.0579775
381 1 0.983743 0.790127 0.0604979
399 1 0.886508 0.769978 0.0691656
364 1 0.990709 0.676626 0.0695534
305 1 0.19152 0.982826 0.0578958
301 1 0.00277975 0.993978 0.0596732
303 1 0.0893329 0.995591 0.0693677
383 1 0.0798412 0.805527 0.0686983
382 1 0.0849924 0.888597 0.0582737
388 1 0.186653 0.892841 0.0698096
307 1 0.291001 0.998256 0.067938
309 1 0.392268 0.999807 0.0592777
386 1 0.287223 0.893427 0.0590901
392 1 0.382438 0.8824 0.0691683
311 1 0.50391 0.999907 0.06899
390 1 0.503453 0.888848 0.0593784
313 1 0.606537 0.995821 0.0614366
396 1 0.613148 0.891162 0.0688442
394 1 0.697932 0.870804 0.0592975
315 1 0.717056 0.985181 0.0693085
317 1 0.812275 0.988245 0.0599379
384 1 0.982628 0.89968 0.069418
398 1 0.897655 0.876331 0.0590942
400 1 0.808918 0.870781 0.0685725
402 1 0.114228 0.0955448 0.0802202
304 1 0.0109318 0.0896961 0.0705437
323 1 0.109057 0.184569 0.0714429
421 1 0.0195656 0.180667 0.0798624
406 1 0.277823 0.0919189 0.0778869
429 1 0.389685 0.179269 0.0779462
410 1 0.488295 0.100467 0.07935
433 1 0.591786 0.196012 0.0792255
416 1 0.589018 0.0726626 0.0873124
316 1 0.600135 0.0877525 0.0712273
414 1 0.702806 0.0842336 0.0803774
437 1 0.788133 0.195783 0.0806326
418 1 0.894112 0.092889 0.0801447
417 1 0.80532 0.00300754 0.0804766
422 1 0.0969756 0.277282 0.0806303
441 1 0.00450729 0.380861 0.078749
425 1 0.213583 0.205801 0.0823331
426 1 0.320617 0.292173 0.0796552
445 1 0.213935 0.369256 0.0796911
430 1 0.48346 0.286176 0.0784884
453 1 0.571136 0.385503 0.0791335
449 1 0.40767 0.389205 0.0800951
434 1 0.703599 0.301485 0.0795987
438 1 0.914965 0.265263 0.0805861
457 1 0.813512 0.391662 0.0812822
359 1 0.90559 0.355509 0.0702094
344 1 0.000989197 0.493049 0.0702275
442 1 0.10987 0.468069 0.0810458
465 1 0.189786 0.591604 0.0789576
461 1 0.00685471 0.582839 0.0799507
367 1 0.307123 0.596907 0.0708253
446 1 0.311371 0.477243 0.0788399
469 1 0.385713 0.589909 0.0802403
450 1 0.490768 0.493903 0.0782186
454 1 0.684936 0.47441 0.0797161
477 1 0.79734 0.577848 0.0791392
473 1 0.604331 0.583161 0.0766414
475 1 0.695324 0.572661 0.0873095
360 1 0.816624 0.470357 0.0706722
458 1 0.903312 0.484683 0.0797522
462 1 0.107508 0.715293 0.0783814
485 1 0.202644 0.789805 0.0787376
466 1 0.294598 0.700496 0.0782351
470 1 0.492759 0.66653 0.0785271
489 1 0.402296 0.777602 0.0786499
474 1 0.696752 0.67445 0.0793288
493 1 0.605503 0.783624 0.0782217
497 1 0.770485 0.774179 0.0794008
481 1 0.983302 0.788005 0.0802131
478 1 0.894818 0.671381 0.0784273
405 1 0.192732 0.991417 0.0792487
482 1 0.091816 0.885631 0.0820507
409 1 0.389813 0.987392 0.0780334
486 1 0.288267 0.905226 0.0775967
492 1 0.394547 0.876694 0.0871063
413 1 0.591375 0.973986 0.0784394
490 1 0.498063 0.893305 0.0778746
496 1 0.585871 0.86809 0.0870539
494 1 0.705024 0.878526 0.0775996
500 1 0.779925 0.90548 0.0876856
401 1 0.998306 0.992182 0.080097
498 1 0.886187 0.902185 0.080206
404 1 0.00250023 0.0844805 0.0892256
403 1 0.0904211 0.000593112 0.0891056
502 1 0.0967158 0.0929151 0.100305
423 1 0.109068 0.177168 0.090869
521 1 0.0054491 0.184796 0.098068
408 1 0.20032 0.0743274 0.0889673
525 1 0.207075 0.182476 0.100527
506 1 0.317175 0.091003 0.100421
412 1 0.395656 0.101279 0.0902786
427 1 0.317869 0.198104 0.0906562
510 1 0.517239 0.0880434 0.0980755
529 1 0.402047 0.186573 0.101314
431 1 0.485256 0.199702 0.0887406
514 1 0.655775 0.0732693 0.09854
435 1 0.690764 0.191861 0.0893492
537 1 0.799833 0.18988 0.100233
533 1 0.607275 0.1937 0.0982238
501 1 0.996576 0.020148 0.101569
420 1 0.802233 0.0974151 0.0899484
518 1 0.887848 0.0972306 0.100253
439 1 0.896586 0.196875 0.0914148
522 1 0.0883363 0.284905 0.101212
428 1 0.187831 0.288581 0.0927566
443 1 0.0879468 0.383923 0.0908245
545 1 0.194277 0.375648 0.101175
526 1 0.309202 0.283581 0.101288
447 1 0.306483 0.386563 0.0892465
432 1 0.400776 0.293947 0.0898884
549 1 0.411276 0.394847 0.100162
530 1 0.517218 0.297768 0.099878
436 1 0.590035 0.297952 0.0890809
534 1 0.695302 0.293944 0.101246
440 1 0.786475 0.291343 0.0912439
455 1 0.702105 0.397046 0.089888
557 1 0.788415 0.390257 0.100536
424 1 0.996645 0.299803 0.0905362
538 1 0.904224 0.324019 0.0987069
542 1 0.0926625 0.483752 0.100794
565 1 0.19265 0.591871 0.102747
448 1 0.191915 0.479766 0.0919645
463 1 0.0937626 0.599933 0.0906631
546 1 0.282528 0.49182 0.102646
467 1 0.275763 0.57948 0.0896568
452 1 0.38732 0.49014 0.0920535
569 1 0.382271 0.588716 0.10041
451 1 0.490786 0.422888 0.0909058
550 1 0.479089 0.496943 0.101318
553 1 0.582788 0.403786 0.099461
456 1 0.594942 0.502644 0.0878778
471 1 0.490522 0.581072 0.0896449
573 1 0.593851 0.578353 0.0986442
554 1 0.694383 0.491246 0.0991345
460 1 0.787297 0.487867 0.0893264
577 1 0.785278 0.580151 0.0995144
541 1 0.98984 0.403181 0.0998999
444 1 0.993854 0.493034 0.0904065
561 1 0.988239 0.589597 0.0997358
459 1 0.887333 0.415884 0.091222
558 1 0.896389 0.504694 0.100094
479 1 0.887281 0.583458 0.0888419
562 1 0.0920713 0.688928 0.100752
464 1 0.0164561 0.699286 0.0897583
483 1 0.103561 0.782948 0.0907521
468 1 0.212912 0.694892 0.0888106
566 1 0.281369 0.686888 0.0996497
472 1 0.367769 0.685861 0.0887951
589 1 0.386193 0.764001 0.0988985
585 1 0.204967 0.783555 0.100013
487 1 0.301156 0.795724 0.0879345
570 1 0.481196 0.670596 0.0997735
491 1 0.50609 0.771796 0.0890366
593 1 0.581857 0.767245 0.098943
476 1 0.601315 0.663532 0.0896019
574 1 0.68597 0.692 0.0998275
597 1 0.788965 0.781363 0.098252
480 1 0.770537 0.678379 0.0906083
495 1 0.680869 0.777592 0.0890253
578 1 0.876223 0.695437 0.0983708
581 1 0.982128 0.783174 0.101093
499 1 0.888724 0.792293 0.0897446
582 1 0.113894 0.893447 0.0981585
505 1 0.221953 0.978706 0.0990033
407 1 0.293316 0.991328 0.0886076
488 1 0.208001 0.894722 0.0881743
586 1 0.31413 0.877163 0.0969788
411 1 0.480656 0.992204 0.0877891
509 1 0.405027 0.976609 0.0979295
513 1 0.589602 0.964554 0.097896
590 1 0.48388 0.859336 0.097705
517 1 0.79408 0.988114 0.0984907
415 1 0.685394 0.988789 0.0883563
594 1 0.707817 0.903924 0.0984885
419 1 0.898185 0.999798 0.0910656
484 1 0.990516 0.88927 0.0897629
598 1 0.874445 0.883476 0.100547
602 1 0.0810026 0.0768084 0.119304
605 1 0.17612 0.00590833 0.120153
523 1 0.085771 0.179427 0.109905
625 1 0.18847 0.172939 0.12075
508 1 0.218942 0.0708822 0.110209
606 1 0.320414 0.102788 0.119322
527 1 0.296106 0.18893 0.11082
512 1 0.428378 0.0736953 0.107621
610 1 0.481884 0.10109 0.120167
531 1 0.491282 0.198645 0.109952
516 1 0.585713 0.0966276 0.111181
613 1 0.592232 0.00514181 0.120852
633 1 0.584501 0.193852 0.121164
614 1 0.675587 0.110015 0.120982
520 1 0.780978 0.0887333 0.108238
535 1 0.694077 0.194234 0.110033
617 1 0.758981 0.00738185 0.11981
504 1 0.976679 0.111692 0.110461
618 1 0.890201 0.0825413 0.121048
519 1 0.884965 0.00419916 0.109123
621 1 0.990782 0.191061 0.120659
622 1 0.0762311 0.29305 0.120526
645 1 0.184526 0.377697 0.119435
528 1 0.202763 0.266376 0.110626
626 1 0.297693 0.279625 0.121479
532 1 0.397066 0.295053 0.110237
629 1 0.394005 0.205935 0.121805
547 1 0.294821 0.383971 0.110397
649 1 0.379287 0.36415 0.120333
630 1 0.490598 0.295758 0.120197
536 1 0.583052 0.284927 0.111359
551 1 0.479671 0.3975 0.112245
637 1 0.787633 0.208897 0.120469
634 1 0.674222 0.294465 0.120683
540 1 0.791022 0.298724 0.110785
555 1 0.674859 0.389624 0.10981
657 1 0.786546 0.394923 0.121066
539 1 0.888796 0.205997 0.109015
641 1 0.982261 0.386042 0.121797
524 1 0.985508 0.286918 0.110478
638 1 0.902004 0.287976 0.119615
559 1 0.888309 0.384846 0.110084
543 1 0.0722516 0.404263 0.111011
642 1 0.0974033 0.477203 0.121166
548 1 0.179043 0.478826 0.110479
665 1 0.19896 0.591508 0.121244
646 1 0.276477 0.469272 0.120827
552 1 0.382284 0.481459 0.11083
567 1 0.280957 0.57793 0.111907
650 1 0.492356 0.491961 0.120704
571 1 0.480641 0.597308 0.109809
556 1 0.581584 0.489949 0.109136
653 1 0.590419 0.412756 0.119763
669 1 0.403117 0.592211 0.119247
673 1 0.599016 0.599307 0.118754
654 1 0.697076 0.494834 0.120139
560 1 0.782326 0.479587 0.109881
575 1 0.685323 0.585648 0.109547
544 1 0.993671 0.498167 0.112348
658 1 0.886988 0.489943 0.118806
677 1 0.804764 0.582869 0.11961
579 1 0.892468 0.599447 0.110392
563 1 0.0745125 0.600207 0.110381
662 1 0.0594854 0.702323 0.119885
568 1 0.170176 0.685886 0.112633
666 1 0.279942 0.692236 0.11885
572 1 0.363168 0.683082 0.109083
689 1 0.385 0.77374 0.117615
587 1 0.299688 0.796873 0.108393
670 1 0.499817 0.691915 0.118339
576 1 0.591687 0.676545 0.108937
591 1 0.486201 0.779378 0.108037
693 1 0.606715 0.782516 0.119565
674 1 0.700292 0.669793 0.119732
580 1 0.784479 0.674172 0.109088
595 1 0.708752 0.793762 0.108304
661 1 0.97666 0.607936 0.121647
564 1 0.972305 0.690944 0.109544
678 1 0.879552 0.70995 0.120818
599 1 0.864027 0.795163 0.110198
503 1 0.107038 0.993012 0.109076
583 1 0.0893647 0.810444 0.109594
682 1 0.088215 0.905134 0.119505
507 1 0.31889 0.989721 0.10922
685 1 0.209911 0.808399 0.119075
588 1 0.209937 0.89474 0.110146
686 1 0.310936 0.883287 0.118587
609 1 0.414511 0.977041 0.11899
511 1 0.507786 0.957033 0.108824
592 1 0.401159 0.871609 0.106697
690 1 0.501019 0.875793 0.118741
596 1 0.596966 0.857691 0.108031
515 1 0.672552 0.985748 0.108977
694 1 0.673878 0.907274 0.121386
697 1 0.769923 0.817584 0.119503
600 1 0.780503 0.908403 0.109886
601 1 0.991309 0.983766 0.115696
681 1 0.972262 0.802686 0.120348
584 1 0.951311 0.880884 0.110297
698 1 0.86263 0.917969 0.119787
702 1 0.0877409 0.0897556 0.140101
608 1 0.191072 0.0936025 0.131573
623 1 0.0972834 0.179537 0.12979
627 1 0.291309 0.180465 0.130242
706 1 0.302885 0.05913 0.138032
612 1 0.388493 0.0796611 0.130032
616 1 0.575739 0.104921 0.131194
713 1 0.58754 0.00701032 0.139618
631 1 0.480249 0.197021 0.131043
710 1 0.476714 0.0809535 0.138801
714 1 0.69831 0.0968588 0.139845
620 1 0.78477 0.101682 0.130331
615 1 0.671646 0.00694148 0.130279
604 1 0.984112 0.0750974 0.128373
639 1 0.893011 0.183627 0.129891
619 1 0.870816 0.00713943 0.131296
643 1 0.0896554 0.379346 0.130171
628 1 0.192475 0.288904 0.130515
632 1 0.386646 0.286912 0.131569
636 1 0.587663 0.280311 0.130774
651 1 0.505519 0.384111 0.129189
635 1 0.68472 0.204205 0.129883
757 1 0.779685 0.397632 0.140332
655 1 0.698829 0.376054 0.130789
624 1 0.98255 0.275275 0.131691
640 1 0.802777 0.299456 0.129131
659 1 0.89521 0.3892 0.132496
741 1 0.999384 0.374159 0.140073
737 1 0.800221 0.202244 0.139638
663 1 0.0912363 0.599058 0.129888
648 1 0.180991 0.485579 0.131185
647 1 0.286221 0.41358 0.131634
667 1 0.300952 0.587844 0.128693
652 1 0.377413 0.484823 0.128155
746 1 0.278623 0.524538 0.139865
750 1 0.500365 0.502062 0.138872
656 1 0.602087 0.496832 0.130704
675 1 0.702896 0.580992 0.1303
754 1 0.6929 0.487253 0.139985
660 1 0.790117 0.490659 0.129957
644 1 0.977471 0.500022 0.128735
761 1 0.991213 0.590315 0.138705
679 1 0.87697 0.596531 0.131215
765 1 0.193463 0.609837 0.139083
762 1 0.100592 0.710404 0.138824
785 1 0.194827 0.79057 0.140196
668 1 0.201107 0.712706 0.128749
672 1 0.373534 0.697411 0.12818
769 1 0.393856 0.601433 0.13906
671 1 0.482351 0.602543 0.128349
691 1 0.505791 0.777769 0.129078
770 1 0.494709 0.701757 0.139908
676 1 0.607796 0.684682 0.12976
695 1 0.689577 0.785544 0.130835
793 1 0.607873 0.773407 0.139991
664 1 0.966123 0.710468 0.130557
680 1 0.80091 0.695438 0.13025
778 1 0.882196 0.711984 0.139624
683 1 0.0826783 0.803112 0.129318
603 1 0.0832534 0.982651 0.130166
782 1 0.0923266 0.886109 0.140241
688 1 0.189601 0.900472 0.12864
607 1 0.297023 0.974444 0.12881
687 1 0.305664 0.804271 0.129649
786 1 0.292197 0.88908 0.13986
709 1 0.39826 0.980269 0.139661
611 1 0.488644 0.984988 0.129922
692 1 0.412267 0.873283 0.130213
696 1 0.576863 0.887859 0.130769
797 1 0.767383 0.810003 0.140041
700 1 0.770337 0.900628 0.130376
794 1 0.665247 0.899459 0.139319
684 1 0.974546 0.915083 0.12924
699 1 0.875887 0.819379 0.128671
701 1 0.992014 0.978473 0.140155
781 1 0.996854 0.819105 0.13947
723 1 0.0876545 0.171826 0.150591
703 1 0.110776 0.00546159 0.151159
729 1 0.376583 0.190956 0.14077
725 1 0.204453 0.178608 0.140396
708 1 0.206923 0.0945055 0.149566
727 1 0.290183 0.197329 0.150508
712 1 0.373408 0.0977785 0.148927
731 1 0.48256 0.158222 0.14907
733 1 0.601708 0.187283 0.142067
716 1 0.609163 0.0956462 0.150879
735 1 0.729484 0.194076 0.150693
721 1 0.984671 0.183384 0.141273
704 1 0.986317 0.088511 0.149661
720 1 0.809234 0.076525 0.151098
718 1 0.871131 0.100801 0.140501
739 1 0.891855 0.199581 0.150368
745 1 0.181642 0.395015 0.14121
722 1 0.107947 0.27177 0.142659
724 1 3.5189e-05 0.296706 0.150413
743 1 0.0972964 0.389696 0.150417
726 1 0.272667 0.289016 0.14098
749 1 0.384793 0.370498 0.14083
728 1 0.202629 0.281275 0.151566
732 1 0.378159 0.281027 0.149635
730 1 0.47979 0.28091 0.140406
751 1 0.476365 0.383217 0.149201
736 1 0.584114 0.291343 0.149586
734 1 0.698258 0.281026 0.14185
755 1 0.68194 0.398031 0.15103
740 1 0.8108 0.304536 0.149531
738 1 0.892577 0.29339 0.140684
759 1 0.904643 0.398555 0.149534
742 1 0.0981122 0.496424 0.140935
744 1 0.00173681 0.495364 0.148941
748 1 0.177118 0.50071 0.150146
747 1 0.290885 0.403489 0.148801
752 1 0.393128 0.500186 0.147893
753 1 0.581721 0.401535 0.140908
756 1 0.579743 0.493566 0.149598
777 1 0.79275 0.578949 0.141726
773 1 0.606153 0.597027 0.141626
760 1 0.794147 0.482248 0.150072
758 1 0.887071 0.498955 0.140815
763 1 0.0868798 0.604994 0.149988
783 1 0.101516 0.790565 0.150875
766 1 0.291939 0.692201 0.14079
789 1 0.372292 0.791252 0.141299
767 1 0.296553 0.601911 0.150115
768 1 0.201274 0.682331 0.149483
772 1 0.390921 0.696577 0.151033
787 1 0.273513 0.790283 0.151829
771 1 0.49092 0.600453 0.149099
776 1 0.59676 0.685246 0.152293
791 1 0.497356 0.79627 0.151003
775 1 0.689123 0.603123 0.150401
774 1 0.706694 0.693947 0.140466
780 1 0.79422 0.695809 0.149558
795 1 0.699413 0.778011 0.152058
764 1 0.993867 0.714034 0.146603
779 1 0.889785 0.605 0.148793
705 1 0.191182 0.996202 0.140465
784 1 0.0221568 0.887117 0.150337
788 1 0.187601 0.897408 0.150455
707 1 0.283301 0.98679 0.150094
792 1 0.372058 0.889662 0.150733
790 1 0.503533 0.885352 0.141426
711 1 0.496154 0.9932 0.149357
796 1 0.596304 0.884052 0.15056
715 1 0.689943 0.996615 0.151129
717 1 0.770242 0.988292 0.140426
719 1 0.905897 0.976006 0.150213
798 1 0.873367 0.892398 0.140677
799 1 0.9109 0.802825 0.151568
800 1 0.800658 0.89452 0.151435
802 1 0.0821572 0.0910548 0.160236
823 1 0.0830967 0.19538 0.171701
808 1 0.18148 0.112377 0.169339
806 1 0.286297 0.115221 0.161407
812 1 0.391039 0.0885714 0.170246
805 1 0.202417 0.0183969 0.160111
807 1 0.282174 0.00236493 0.170538
810 1 0.481387 0.0992827 0.160302
816 1 0.595738 0.109701 0.168178
831 1 0.478605 0.196721 0.171118
814 1 0.710865 0.107075 0.159932
815 1 0.702835 0.00604753 0.168923
820 1 0.797932 0.116984 0.169264
804 1 0.991557 0.0878821 0.1706
818 1 0.896171 0.0786153 0.159677
821 1 0.997493 0.18984 0.159939
822 1 0.0716053 0.296179 0.162322
828 1 0.176382 0.290821 0.174176
824 1 0.00151228 0.30145 0.173254
825 1 0.171063 0.204423 0.160577
845 1 0.176386 0.387529 0.161744
843 1 0.0953215 0.385622 0.172404
829 1 0.399743 0.208696 0.159934
827 1 0.304933 0.212531 0.169225
826 1 0.287743 0.302583 0.160594
847 1 0.292085 0.394393 0.170219
832 1 0.395977 0.307479 0.169211
849 1 0.377283 0.391889 0.158616
833 1 0.573091 0.203159 0.158587
830 1 0.493538 0.303793 0.160946
836 1 0.577739 0.297711 0.169429
853 1 0.583983 0.387224 0.159127
851 1 0.488372 0.387915 0.170469
835 1 0.695528 0.207739 0.170571
834 1 0.698694 0.301377 0.159548
855 1 0.694304 0.397968 0.16997
837 1 0.797376 0.205957 0.160993
841 1 0.98682 0.39534 0.160691
838 1 0.899485 0.295697 0.159736
839 1 0.901348 0.209056 0.170087
840 1 0.805686 0.307723 0.169578
842 1 0.0873592 0.48344 0.160621
865 1 0.189535 0.586793 0.158786
863 1 0.100353 0.576628 0.168567
848 1 0.206794 0.476658 0.17242
846 1 0.26797 0.487694 0.160417
867 1 0.287672 0.576992 0.169882
852 1 0.386241 0.493626 0.170389
869 1 0.385855 0.5674 0.159407
850 1 0.48872 0.474909 0.159519
871 1 0.481133 0.585363 0.17105
856 1 0.592443 0.483788 0.169528
873 1 0.572926 0.581752 0.160727
854 1 0.671543 0.500608 0.159228
875 1 0.668251 0.592234 0.17168
857 1 0.780663 0.405812 0.159899
860 1 0.772463 0.51485 0.170062
859 1 0.901134 0.400477 0.170079
844 1 0.993808 0.4923 0.170303
861 1 0.974145 0.582739 0.159318
858 1 0.877393 0.49406 0.159998
879 1 0.891915 0.588964 0.171535
877 1 0.800988 0.595044 0.158912
862 1 0.091862 0.698793 0.159562
864 1 0.0142699 0.686996 0.169183
883 1 0.0910211 0.794771 0.172695
885 1 0.195854 0.79901 0.161908
868 1 0.203643 0.685982 0.168079
866 1 0.311701 0.695571 0.161242
887 1 0.302427 0.785606 0.171971
872 1 0.399676 0.689215 0.171001
870 1 0.483127 0.682193 0.161118
893 1 0.595441 0.782761 0.160363
876 1 0.591729 0.692718 0.169525
891 1 0.479701 0.783014 0.168862
874 1 0.693091 0.683347 0.160997
880 1 0.788895 0.684554 0.169242
878 1 0.893239 0.697117 0.158799
897 1 0.819712 0.797106 0.161349
899 1 0.90202 0.780342 0.170388
881 1 0.00089199 0.805102 0.161302
803 1 0.102161 0.996444 0.171116
882 1 0.0938281 0.899513 0.159733
884 1 0.00176866 0.907727 0.170259
809 1 0.377615 0.981144 0.161337
888 1 0.20163 0.906654 0.169902
886 1 0.2837 0.896078 0.160049
889 1 0.383398 0.803304 0.161547
892 1 0.386466 0.892791 0.171023
811 1 0.497729 0.997605 0.169112
890 1 0.476981 0.901344 0.158611
813 1 0.593948 0.997965 0.159962
896 1 0.575961 0.889436 0.170514
895 1 0.690897 0.803068 0.169097
894 1 0.702125 0.89899 0.159818
900 1 0.79406 0.895387 0.170008
817 1 0.805865 0.993122 0.160478
819 1 0.895103 0.998313 0.170691
801 1 0.990951 0.990546 0.159654
898 1 0.899174 0.892448 0.161735
902 1 0.0918913 0.0954937 0.18075
923 1 0.101637 0.195262 0.189672
925 1 0.194652 0.188853 0.180499
908 1 0.206972 0.0890771 0.189832
906 1 0.282485 0.0811256 0.179643
927 1 0.30075 0.186966 0.18929
929 1 0.383484 0.185662 0.179588
912 1 0.414502 0.097283 0.188476
910 1 0.50263 0.0780708 0.179161
931 1 0.490245 0.19697 0.190128
916 1 0.580646 0.0810833 0.188794
914 1 0.689993 0.08671 0.180043
933 1 0.607325 0.189534 0.180786
920 1 0.798766 0.10528 0.190497
935 1 0.698911 0.19156 0.189406
904 1 0.979337 0.100549 0.189669
921 1 0.983179 0.196824 0.18149
918 1 0.880232 0.107324 0.17973
922 1 0.0735465 0.296673 0.183072
928 1 0.160238 0.310085 0.191819
945 1 0.175445 0.379959 0.181702
926 1 0.298158 0.288037 0.18115
932 1 0.395034 0.283768 0.189905
947 1 0.290039 0.388737 0.190058
949 1 0.395676 0.378801 0.179131
930 1 0.494419 0.284232 0.180658
936 1 0.584853 0.296487 0.190268
953 1 0.59664 0.374929 0.179756
951 1 0.499445 0.385521 0.189533