ITEM: TIMESTEP
20000
ITEM: NUMBER OF ATOMS
5000
ITEM: BOX BOUNDS pp pp pp
0.0000000000000000e+00 8.0180007035687204e+00
0.0000000000000000e+00 8.0180007035687204e+00
0.0000000000000000e+00 8.0180007035687197e+01
ITEM: ATOMS id type xs ys zs
4 1 0.00420217 0.0802439 0.00924649
8 1 0.189314 0.102754 0.00864014
3 1 0.102325 0.00822635 0.00938743
12 1 0.384234 0.10664 0.0102157
11 1 0.502628 0.0122384 0.00928476
16 1 0.605626 0.122091 0.00860656
15 1 0.694696 0.00976382 0.00769928
35 1 0.699865 0.198552 0.0115365
20 1 0.803753 0.0938511 0.00993193
19 1 0.902333 0.00557098 0.00988118
39 1 0.881371 0.186723 0.00965851
23 1 0.100726 0.211642 0.0109266
24 1 0.0216863 0.314062 0.0112219
25 1 0.198936 0.21188 0.000298561
28 1 0.20177 0.311994 0.00966467
27 1 0.289055 0.204612 0.00936012
32 1 0.390148 0.291657 0.00916008
31 1 0.492427 0.212139 0.00908631
36 1 0.592827 0.290384 0.0103153
51 1 0.480296 0.388715 0.0112096
53 1 0.592482 0.399477 0.00187901
37 1 0.788684 0.200929 0.000298711
40 1 0.811959 0.308851 0.00989953
43 1 0.113668 0.408373 0.00902948
48 1 0.190153 0.508463 0.0103565
44 1 0.00811667 0.508438 0.00987285
47 1 0.298147 0.410348 0.0120574
52 1 0.389292 0.507202 0.0105398
46 1 0.304305 0.52625 0.00132176
49 1 0.378726 0.40138 0.00159792
50 1 0.49622 0.510212 0.00108595
55 1 0.696716 0.406365 0.0108543
56 1 0.614664 0.508851 0.00980937
59 1 0.911282 0.407798 0.0103221
60 1 0.810064 0.496087 0.00963209
58 1 0.907997 0.504742 0.00126524
63 1 0.0997247 0.603233 0.0103223
68 1 0.190074 0.709622 0.0115456
85 1 0.195681 0.799472 0.000884147
67 1 0.299879 0.604558 0.0128902
72 1 0.385393 0.728564 0.010627
87 1 0.281704 0.792082 0.0104391
65 1 0.207505 0.616348 0.00170044
66 1 0.303944 0.718692 7.85998e-05
71 1 0.497966 0.606351 0.0101913
76 1 0.589103 0.717521 0.0109623
73 1 0.597645 0.618041 0.00196093
69 1 0.402177 0.618327 0.00158816
75 1 0.717279 0.603235 0.0116076
74 1 0.710921 0.696187 0.000853158
77 1 0.793043 0.602574 0.000739261
79 1 0.908069 0.606954 0.0105953
80 1 0.802885 0.71284 0.0123626
64 1 0.999697 0.690526 0.00921474
78 1 0.881091 0.697486 0.000440749
83 1 0.08477 0.802093 0.0112085
88 1 0.170733 0.896076 0.00904705
7 1 0.309609 0.985576 0.010166
5 1 0.222806 0.991561 0.000226752
91 1 0.496558 0.806998 0.00909385
92 1 0.405394 0.883232 0.0115957
96 1 0.589174 0.913559 0.00872317
93 1 0.599178 0.8042 0.000193749
95 1 0.684658 0.810326 0.0106824
100 1 0.793324 0.911384 0.00989105
97 1 0.794182 0.814525 0.000472465
84 1 0.997987 0.899486 0.00871068
99 1 0.900496 0.819863 0.00889162
102 1 0.11226 0.101526 0.0183026
103 1 0.105006 0.0316551 0.0302852
101 1 0.0170435 0.00753618 0.0218497
108 1 0.194311 0.127143 0.031495
104 1 0.00302567 0.11171 0.032214
106 1 0.296539 0.0942487 0.0204425
112 1 0.398482 0.0831024 0.0284502
125 1 0.207889 0.198033 0.0197918
110 1 0.489943 0.0896938 0.0188918
131 1 0.509849 0.177354 0.0299534
109 1 0.400381 0.00596546 0.0180926
116 1 0.596953 0.0986515 0.0296976
114 1 0.718821 0.104566 0.0209139
113 1 0.611479 0.0216819 0.0203574
115 1 0.705181 0.00101344 0.0299773
133 1 0.601074 0.192075 0.0199226
135 1 0.705789 0.186485 0.0309514
120 1 0.81595 0.102309 0.0305213
118 1 0.913193 0.0921963 0.0190275
117 1 0.806702 0.000972659 0.0195276
119 1 0.915024 0.0196331 0.0312088
121 1 0.992058 0.18892 0.0206523
137 1 0.815527 0.193278 0.0213378
139 1 0.901404 0.196709 0.0314097
123 1 0.0934635 0.201795 0.029236
122 1 0.10808 0.31036 0.0205116
124 1 0.00262199 0.298633 0.0299702
128 1 0.19758 0.30499 0.0308678
143 1 0.106346 0.391626 0.0307842
126 1 0.3052 0.304315 0.0200192
127 1 0.299093 0.201723 0.0300766
129 1 0.398136 0.20623 0.0193016
147 1 0.307061 0.398766 0.0305976
149 1 0.395987 0.397607 0.0203992
132 1 0.420405 0.297395 0.0292231
130 1 0.508805 0.285019 0.0202879
153 1 0.590058 0.391493 0.0193714
134 1 0.706545 0.283504 0.0221671
136 1 0.60482 0.298134 0.0299329
140 1 0.801289 0.303364 0.0296158
138 1 0.914418 0.307892 0.0208892
141 1 6.90254e-05 0.401721 0.0208087
142 1 0.0996818 0.490842 0.020817
144 1 0.00474364 0.485167 0.0311606
148 1 0.191386 0.506068 0.0300353
163 1 0.103028 0.598142 0.0305317
145 1 0.212942 0.406602 0.0212017
146 1 0.298734 0.502725 0.0225137
151 1 0.500224 0.417746 0.0279342
152 1 0.415266 0.511451 0.0295432
150 1 0.494434 0.496298 0.0187991
173 1 0.594674 0.598293 0.0194105
157 1 0.797378 0.418682 0.0203534
156 1 0.60341 0.499231 0.0285768
155 1 0.710505 0.404147 0.029355
154 1 0.696997 0.504526 0.019351
160 1 0.793519 0.514121 0.0318706
158 1 0.915537 0.52055 0.0200014
159 1 0.892588 0.421401 0.0295671
177 1 0.804012 0.588584 0.0209093
161 1 0.00217462 0.615052 0.0212027
165 1 0.190966 0.610908 0.020455
162 1 0.0953566 0.708654 0.0208765
168 1 0.195331 0.698052 0.0301342
185 1 0.195731 0.795078 0.0201401
167 1 0.297129 0.607731 0.0304398
166 1 0.293076 0.708913 0.0210333
172 1 0.388259 0.70023 0.0311512
169 1 0.402641 0.62195 0.0197118
171 1 0.4985 0.616366 0.0294381
170 1 0.499254 0.71842 0.0207169
176 1 0.59223 0.705187 0.0296767
189 1 0.404704 0.799665 0.0215337
175 1 0.685995 0.618232 0.0306045
174 1 0.689474 0.708704 0.0202076
180 1 0.790281 0.717446 0.0313096
164 1 0.995278 0.702216 0.0308575
179 1 0.898992 0.604492 0.0298812
178 1 0.896649 0.704882 0.0201456
181 1 0.996685 0.788246 0.0202724
199 1 0.888669 0.796344 0.0308642
182 1 0.104127 0.907352 0.0197782
105 1 0.199038 0.998116 0.0186034
183 1 0.105114 0.806899 0.0305948
188 1 0.181762 0.906096 0.029757
184 1 0.00714693 0.905053 0.0298612
107 1 0.302237 0.990614 0.0283168
187 1 0.286712 0.82879 0.0306424
186 1 0.296354 0.903902 0.0198459
111 1 0.503924 0.993426 0.0299503
192 1 0.404268 0.900405 0.0286853
191 1 0.506244 0.816668 0.0298202
190 1 0.503897 0.900737 0.0188487
193 1 0.606631 0.810978 0.0206474
195 1 0.688047 0.814941 0.0305111
196 1 0.603194 0.922886 0.0289562
194 1 0.690069 0.921954 0.0184431
197 1 0.792826 0.828111 0.0218022
200 1 0.796908 0.917454 0.0302634
198 1 0.925586 0.914982 0.0200864
202 1 0.0968312 0.111605 0.0422094
204 1 0.0107609 0.122346 0.0514293
203 1 0.0880135 0.00507267 0.0522395
208 1 0.205919 0.101362 0.0505422
206 1 0.293027 0.0859256 0.0400464
212 1 0.390056 0.0947219 0.0508159
227 1 0.306523 0.18725 0.0491426
210 1 0.489914 0.0761163 0.0402844
231 1 0.480413 0.18346 0.0494774
216 1 0.597404 0.101762 0.0499809
213 1 0.599612 0.0011373 0.0393273
229 1 0.408331 0.190147 0.0394178
233 1 0.593515 0.193387 0.0392377
214 1 0.70603 0.0973104 0.0396726
215 1 0.69271 0.0112376 0.0494498
220 1 0.833864 0.103825 0.0520205
218 1 0.917861 0.10627 0.0412648
217 1 0.803743 0.00964741 0.039481
237 1 0.803841 0.19825 0.0403957
219 1 0.911942 0.00104161 0.0517804
223 1 0.106119 0.206018 0.050379
221 1 0.00173566 0.22473 0.0410337
222 1 0.0962161 0.299899 0.0401872
228 1 0.219037 0.308539 0.0503602
225 1 0.212655 0.220663 0.0402489
226 1 0.330647 0.325298 0.0399455
232 1 0.407235 0.309779 0.0496518
230 1 0.515202 0.303412 0.0411032
251 1 0.496215 0.398772 0.050756
235 1 0.696402 0.209895 0.0505315
236 1 0.601557 0.304676 0.0500264
234 1 0.693581 0.287795 0.0399749
240 1 0.792294 0.297703 0.0501277
257 1 0.789528 0.398926 0.0411047
241 1 0.998864 0.391594 0.0401555
224 1 0.995137 0.312909 0.0514054
239 1 0.913923 0.205262 0.0524521
238 1 0.901969 0.309481 0.0384762
259 1 0.885134 0.393414 0.0499804
243 1 0.0963089 0.424494 0.0513219
242 1 0.109028 0.499304 0.0404882
244 1 0.00234684 0.503289 0.0503429
245 1 0.19788 0.401609 0.0409924
247 1 0.323785 0.413499 0.0493181
248 1 0.202564 0.50727 0.0490513
246 1 0.322068 0.515064 0.0398571
249 1 0.428982 0.401958 0.0391865
252 1 0.408299 0.513703 0.0504177
250 1 0.524807 0.503642 0.0394995
256 1 0.589459 0.508075 0.0519759
255 1 0.67803 0.416138 0.0491723
253 1 0.615834 0.406523 0.037879
254 1 0.696269 0.497908 0.0407231
260 1 0.797295 0.501929 0.0493567
275 1 0.713582 0.599061 0.050427
258 1 0.893509 0.51686 0.0408767
263 1 0.0965182 0.616015 0.0494564
262 1 0.0949784 0.704708 0.0392558
268 1 0.187796 0.715067 0.0502304
264 1 0.00629379 0.698509 0.0478557
265 1 0.198473 0.610002 0.0399874
267 1 0.308438 0.611201 0.0487561
266 1 0.289139 0.702914 0.0387739
272 1 0.396244 0.711021 0.0470063
269 1 0.409704 0.607971 0.0398663
271 1 0.493342 0.615403 0.0498215
270 1 0.515728 0.717547 0.0401638
276 1 0.59953 0.725523 0.049103
273 1 0.60542 0.60333 0.0425829
274 1 0.690045 0.700941 0.0398138
277 1 0.792382 0.603162 0.0407582
280 1 0.797381 0.708407 0.0495925
261 1 0.991972 0.601675 0.0402494
279 1 0.894584 0.61355 0.0507865
278 1 0.891703 0.698821 0.0394202
299 1 0.910055 0.797696 0.0485753
201 1 0.00681176 0.984146 0.0412605
205 1 0.176716 0.999533 0.0418766
283 1 0.091777 0.803445 0.0513916
282 1 0.0894539 0.90015 0.04184
285 1 0.18509 0.802624 0.0403366
281 1 0.000479197 0.806723 0.0396287
207 1 0.311982 0.989788 0.0520519
209 1 0.385619 0.989362 0.039146
289 1 0.390809 0.816517 0.037271
287 1 0.288086 0.80512 0.0477483
288 1 0.202793 0.915088 0.0507038
286 1 0.284329 0.906796 0.0403991
292 1 0.392958 0.889894 0.0486452
291 1 0.505457 0.809773 0.0514928
211 1 0.485177 0.977702 0.0506318
290 1 0.483285 0.893041 0.0399224
293 1 0.597018 0.815291 0.0406731
296 1 0.598154 0.91611 0.0491598
295 1 0.687887 0.822832 0.0503971
294 1 0.698455 0.917128 0.0387525
284 1 0.998343 0.897936 0.0519891
297 1 0.800368 0.82113 0.04114
300 1 0.807647 0.925409 0.0508098
298 1 0.908092 0.910854 0.0420817
302 1 0.103029 0.101694 0.0615908
301 1 0.00319722 0.0117029 0.0614965
306 1 0.302287 0.104691 0.0601415
305 1 0.206346 0.0147058 0.0597682
312 1 0.396473 0.0990084 0.0698668
329 1 0.392391 0.196254 0.0590756
310 1 0.487799 0.107405 0.0599194
331 1 0.487625 0.198728 0.0701577
309 1 0.406519 0.00374845 0.0612076
313 1 0.571357 0.00980276 0.0602419
316 1 0.581599 0.0956043 0.0700961
314 1 0.704436 0.102488 0.059438
317 1 0.791384 0.00974842 0.060952
335 1 0.701284 0.193801 0.070091
337 1 0.795616 0.190089 0.0598061
318 1 0.891382 0.103913 0.0632813
321 1 0.00286309 0.20724 0.0615309
322 1 0.109025 0.307364 0.0586783
325 1 0.215848 0.206573 0.058519
326 1 0.312017 0.307872 0.0590703
328 1 0.208192 0.31241 0.0682766
333 1 0.577448 0.204255 0.0596916
332 1 0.409023 0.317799 0.0692541
330 1 0.504824 0.295607 0.0605019
336 1 0.5915 0.31408 0.0698985
334 1 0.695704 0.305024 0.0599458
340 1 0.797223 0.282271 0.068906
338 1 0.884707 0.318398 0.0603176
341 1 0.00953843 0.404153 0.0604334
342 1 0.087527 0.51768 0.0604991
343 1 0.118524 0.424535 0.0693575
345 1 0.20422 0.401978 0.0589501
346 1 0.311431 0.518443 0.0585772
347 1 0.297884 0.418917 0.0681524
348 1 0.211938 0.518872 0.0679734
349 1 0.390572 0.413029 0.0601275
350 1 0.490076 0.529048 0.0599524
356 1 0.584701 0.519556 0.0686795
353 1 0.591745 0.411357 0.0606729
354 1 0.697372 0.510906 0.0605433
357 1 0.788597 0.40896 0.057875
377 1 0.799479 0.593374 0.0593887
359 1 0.895876 0.407348 0.0698798
344 1 0.994519 0.513379 0.068902
358 1 0.889518 0.502204 0.0599921
365 1 0.199043 0.612302 0.0583481
362 1 0.10935 0.701754 0.060003
363 1 0.101677 0.604606 0.0696493
366 1 0.29546 0.697308 0.0583466
369 1 0.399284 0.627589 0.0595641
367 1 0.308548 0.613784 0.0692918
372 1 0.392734 0.716729 0.0689106
387 1 0.297753 0.797765 0.0700678
370 1 0.507864 0.707898 0.0593231
371 1 0.473145 0.622 0.0700825
373 1 0.600194 0.620786 0.0577786
376 1 0.606181 0.693216 0.0688949
374 1 0.685882 0.714022 0.0588657
380 1 0.7759 0.699589 0.069475
361 1 0.985677 0.603468 0.0601621
378 1 0.894414 0.701719 0.0618934
364 1 0.992948 0.696752 0.0694812
381 1 0.00638697 0.8042 0.0623018
382 1 0.0934138 0.916204 0.061132
383 1 0.111749 0.812471 0.0682103
385 1 0.210908 0.807526 0.0592348
386 1 0.304207 0.893249 0.0599455
389 1 0.398678 0.801925 0.0588659
388 1 0.205958 0.900197 0.0678779
390 1 0.511257 0.888126 0.0624536
392 1 0.403266 0.904681 0.0691944
393 1 0.606716 0.810323 0.059216
395 1 0.683884 0.808592 0.0694991
394 1 0.702299 0.917641 0.0596942
315 1 0.682542 0.99871 0.0697641
397 1 0.79516 0.800583 0.0588634
400 1 0.793765 0.901055 0.0689865
399 1 0.89393 0.812822 0.0697042
398 1 0.895877 0.892374 0.0592432
304 1 0.000598643 0.111038 0.0710991
303 1 0.101569 0.000850186 0.0702969
402 1 0.115118 0.0989872 0.0804019
308 1 0.192735 0.0822788 0.0705474
327 1 0.289668 0.183186 0.0707268
307 1 0.294848 0.00268344 0.0702749
406 1 0.282198 0.0966266 0.0799444
311 1 0.488188 0.0014695 0.0721758
410 1 0.487249 0.103145 0.0802625
413 1 0.599037 0.0155939 0.0814044
320 1 0.789891 0.0901342 0.0708958
414 1 0.689458 0.107363 0.0799752
418 1 0.883819 0.0974821 0.0791187
401 1 0.991839 0.0198809 0.0812819
324 1 0.0051158 0.285125 0.07083
323 1 0.102831 0.207837 0.0702225
425 1 0.198736 0.214307 0.0788046
421 1 0.0267945 0.209146 0.0805218
422 1 0.107017 0.311491 0.0796741
429 1 0.397752 0.204735 0.0794119
426 1 0.307052 0.321799 0.0782323
430 1 0.502135 0.297558 0.0796022
453 1 0.589477 0.399228 0.0820801
355 1 0.70902 0.395397 0.0707448
433 1 0.602543 0.225789 0.0811599
434 1 0.710809 0.307207 0.0789359
339 1 0.909059 0.20626 0.0707073
437 1 0.803049 0.210237 0.0802248
438 1 0.91773 0.309407 0.079674
457 1 0.809075 0.398434 0.0819509
441 1 0.000362077 0.403824 0.078566
442 1 0.0887987 0.500648 0.0786828
445 1 0.198364 0.414679 0.0799115
446 1 0.291343 0.513142 0.078549
465 1 0.200244 0.597294 0.0803643
449 1 0.412366 0.407985 0.0799618
351 1 0.494841 0.411844 0.0703063
352 1 0.405058 0.509893 0.070374
450 1 0.503849 0.512519 0.0782837
375 1 0.698369 0.598859 0.0715989
454 1 0.698574 0.499368 0.0809486
477 1 0.799986 0.594792 0.0804735
360 1 0.80018 0.494907 0.0704678
379 1 0.879694 0.594516 0.070529
458 1 0.901111 0.495415 0.0808417
461 1 0.994316 0.598615 0.0808206
462 1 0.0842397 0.703085 0.0798599
368 1 0.205565 0.690255 0.070919
466 1 0.306394 0.703835 0.0801611
391 1 0.513597 0.793165 0.0702406
469 1 0.408304 0.616599 0.0805869
470 1 0.511209 0.704852 0.0802455
473 1 0.587126 0.603959 0.0793532
493 1 0.599451 0.799765 0.0801205
474 1 0.701715 0.705104 0.0792053
497 1 0.796047 0.793393 0.0780864
481 1 0.989516 0.796238 0.0793641
478 1 0.884911 0.690385 0.0785131
482 1 0.0870226 0.911261 0.0793588
485 1 0.182249 0.801087 0.0799219
405 1 0.185063 0.992659 0.0795157
486 1 0.288288 0.905992 0.0787157
489 1 0.389694 0.803835 0.0796929
396 1 0.582003 0.911174 0.0732158
409 1 0.407599 0.974136 0.0819317
490 1 0.496858 0.861684 0.0802235
494 1 0.700524 0.897959 0.0795235
417 1 0.793752 0.998871 0.0796731
384 1 0.992018 0.905709 0.0707038
319 1 0.885815 0.995005 0.0703606
498 1 0.895417 0.900587 0.079649
502 1 0.113168 0.089421 0.099814
423 1 0.116007 0.19432 0.0907726
521 1 0.00755106 0.196374 0.100104
525 1 0.199022 0.185574 0.10096
403 1 0.107687 0.00821838 0.0891075
408 1 0.20874 0.0952501 0.0905968
506 1 0.296212 0.10133 0.0997866
412 1 0.383375 0.114481 0.0885773
529 1 0.396189 0.197814 0.0986553
510 1 0.487618 0.0832433 0.0979753
416 1 0.597819 0.120372 0.0903178
514 1 0.705032 0.11016 0.1005
513 1 0.607738 0.00495075 0.0983045
415 1 0.700491 0.0118601 0.0895445
517 1 0.786783 0.000628892 0.0994169
404 1 0.993626 0.124581 0.0889692
420 1 0.800719 0.108179 0.09007
518 1 0.886954 0.0950849 0.100265
501 1 0.997993 0.0110965 0.0966328
419 1 0.888176 0.00488768 0.0889301
522 1 0.0973815 0.311822 0.0972446
424 1 0.00110958 0.289362 0.0892015
427 1 0.291305 0.211054 0.0883632
428 1 0.200654 0.305239 0.0884308
526 1 0.302053 0.298579 0.0988827
432 1 0.402871 0.303798 0.0901049
431 1 0.498832 0.207699 0.0901763
530 1 0.490636 0.312863 0.0996999
533 1 0.593882 0.223788 0.102972
436 1 0.587251 0.304869 0.091619
440 1 0.782605 0.30013 0.0906777
435 1 0.680423 0.215951 0.0933181
534 1 0.683958 0.323107 0.100224
537 1 0.801177 0.214719 0.0997789
439 1 0.897838 0.20313 0.0897691
459 1 0.906349 0.394958 0.0913489
538 1 0.921664 0.305534 0.10002
443 1 0.0969489 0.408629 0.0897222
541 1 0.0228343 0.403635 0.100992
542 1 0.114139 0.507883 0.100501
444 1 0.00300246 0.489116 0.0901546
561 1 0.00977299 0.591938 0.0994585
448 1 0.19773 0.503251 0.0888047
447 1 0.300515 0.42055 0.0895912
545 1 0.204332 0.402198 0.0982108
549 1 0.375146 0.413965 0.101155
546 1 0.272555 0.500981 0.100362
452 1 0.379693 0.512821 0.0884973
467 1 0.299039 0.596162 0.0909858
553 1 0.589681 0.43209 0.101962
451 1 0.492424 0.408799 0.0897238
550 1 0.49046 0.516962 0.100222
456 1 0.594281 0.513199 0.0902155
557 1 0.785983 0.415356 0.0999477
455 1 0.698163 0.404164 0.0905535
554 1 0.680963 0.521573 0.100031
479 1 0.907803 0.598851 0.0904435
460 1 0.80391 0.512626 0.0899321
558 1 0.910609 0.489748 0.101074
565 1 0.194006 0.608869 0.100517
463 1 0.0970176 0.618938 0.0901735
562 1 0.101242 0.714263 0.102677
483 1 0.100265 0.799048 0.0894071
464 1 0.000716265 0.707468 0.0904959
569 1 0.388076 0.620207 0.100119
468 1 0.202065 0.701855 0.089384
566 1 0.289219 0.70099 0.0995196
472 1 0.384669 0.711945 0.0900771
471 1 0.49002 0.613455 0.0911202
570 1 0.483438 0.704132 0.101733
573 1 0.596577 0.609323 0.0987091
476 1 0.593902 0.706506 0.0906227
491 1 0.490407 0.782989 0.0910547
593 1 0.598681 0.797367 0.100318
475 1 0.696355 0.612203 0.0883408
574 1 0.704184 0.700793 0.0988158
495 1 0.706572 0.790277 0.0891416
577 1 0.798482 0.60384 0.0987045
480 1 0.812162 0.694041 0.0884199
578 1 0.905266 0.686055 0.09977
597 1 0.806162 0.785671 0.0983095
499 1 0.900053 0.787401 0.0898069
585 1 0.198306 0.804621 0.0984054
582 1 0.0996122 0.907795 0.0973102
505 1 0.1972 0.99757 0.10108
488 1 0.197532 0.894661 0.0893881
407 1 0.29552 0.988664 0.0895567
509 1 0.398137 0.997469 0.0998207
487 1 0.284942 0.813812 0.0883806
589 1 0.389301 0.803324 0.101135
586 1 0.300728 0.902825 0.100381
492 1 0.400145 0.890709 0.091366
411 1 0.509884 0.972866 0.08934
590 1 0.506803 0.888568 0.0995138
496 1 0.612404 0.885335 0.0885745
594 1 0.706345 0.891825 0.0972903
581 1 0.983065 0.802101 0.0988904
484 1 0.997536 0.903263 0.0893036
500 1 0.803367 0.887875 0.0887533
598 1 0.886235 0.890882 0.09882
602 1 0.11663 0.0905536 0.11986
523 1 0.0999447 0.191541 0.109238
621 1 0.0243726 0.195272 0.119604
508 1 0.202134 0.0928906 0.109852
625 1 0.203041 0.191038 0.118268
606 1 0.288207 0.0918556 0.119423
527 1 0.307735 0.197889 0.109036
512 1 0.399467 0.102628 0.10801
629 1 0.390396 0.198441 0.119336
507 1 0.31276 0.00460287 0.108964
610 1 0.513306 0.103654 0.117876
609 1 0.419056 0.00977266 0.117855
516 1 0.620965 0.101343 0.10897
614 1 0.702455 0.104767 0.120975
613 1 0.610403 0.011405 0.121948
520 1 0.802257 0.1056 0.111035
504 1 0.998178 0.108802 0.110458
618 1 0.902469 0.0875033 0.120907
622 1 0.114717 0.312009 0.119306
524 1 0.020914 0.304121 0.110697
528 1 0.180071 0.305234 0.108155
626 1 0.2807 0.295932 0.117288
547 1 0.271083 0.390789 0.10952
532 1 0.390338 0.297355 0.110522
649 1 0.368744 0.396112 0.11843
531 1 0.483094 0.210248 0.109481
630 1 0.480689 0.328262 0.120234
536 1 0.588139 0.317893 0.11127
633 1 0.602061 0.218176 0.120247
535 1 0.7071 0.206937 0.109998
634 1 0.714028 0.296696 0.119974
539 1 0.920004 0.206309 0.108353
641 1 0.995508 0.39916 0.120919
540 1 0.805368 0.2895 0.109887
657 1 0.808679 0.383279 0.119485
637 1 0.818162 0.206766 0.11923
638 1 0.915898 0.297914 0.118485
559 1 0.912949 0.391118 0.108629
543 1 0.112945 0.411093 0.110126
642 1 0.0933724 0.521643 0.119566
544 1 0.00572887 0.496283 0.110043
548 1 0.186952 0.527398 0.111773
645 1 0.202139 0.404211 0.12087
646 1 0.2865 0.50704 0.120704
669 1 0.396051 0.598133 0.121948
552 1 0.381185 0.50663 0.112115
653 1 0.580949 0.412768 0.120408
551 1 0.476007 0.413884 0.10969
650 1 0.492451 0.51164 0.12107
556 1 0.581957 0.526881 0.110559
555 1 0.703034 0.40467 0.111953
654 1 0.711737 0.507766 0.11934
560 1 0.788793 0.518343 0.108042
658 1 0.891291 0.486621 0.118814
579 1 0.906213 0.596684 0.108507
677 1 0.827377 0.589442 0.118703
563 1 0.0958366 0.604822 0.109531
665 1 0.186528 0.623919 0.120695
662 1 0.0831505 0.695921 0.122034
568 1 0.194212 0.701365 0.110532
567 1 0.280309 0.612403 0.111306
666 1 0.282481 0.720709 0.118634
587 1 0.284645 0.790812 0.108775
572 1 0.385844 0.702764 0.110004
571 1 0.480502 0.600499 0.111369
670 1 0.500592 0.715506 0.119537
673 1 0.612908 0.611037 0.119808
575 1 0.691207 0.604222 0.109136
576 1 0.605147 0.712838 0.110095
674 1 0.702258 0.699987 0.120812
693 1 0.609342 0.797035 0.119186
661 1 0.991425 0.60637 0.119458
564 1 0.995214 0.713453 0.108971
697 1 0.812943 0.7997 0.119538
580 1 0.804477 0.701192 0.109291
678 1 0.925615 0.722382 0.120064
583 1 0.102722 0.830504 0.109634
681 1 0.0153112 0.801908 0.118989
503 1 0.090826 0.993308 0.108081
682 1 0.108164 0.908974 0.119232
685 1 0.190464 0.808255 0.120105
605 1 0.210607 0.996229 0.119952
588 1 0.205966 0.899657 0.110138
686 1 0.313731 0.895632 0.117985
511 1 0.523978 0.99819 0.109532
689 1 0.407018 0.813485 0.11841
591 1 0.502718 0.80346 0.109523
592 1 0.414369 0.912418 0.109587
690 1 0.503075 0.904748 0.119356
595 1 0.704161 0.80095 0.109412
596 1 0.613191 0.900729 0.108015
515 1 0.708792 0.995877 0.110039
694 1 0.710003 0.885322 0.119946
600 1 0.79879 0.899711 0.10912
601 1 0.990095 0.999255 0.118368
584 1 0.997383 0.903332 0.10717
617 1 0.804388 0.998761 0.119135
599 1 0.898527 0.804304 0.109617
519 1 0.883975 0.996388 0.107653
698 1 0.908979 0.898952 0.119065
702 1 0.0872787 0.0919044 0.139106
721 1 0.00119937 0.19378 0.137797
604 1 0.00136134 0.0896669 0.130236
603 1 0.103732 0.00690305 0.130079
608 1 0.191949 0.0891574 0.129688
725 1 0.192002 0.184548 0.139877
623 1 0.103758 0.182824 0.129845
627 1 0.286558 0.187897 0.128725
706 1 0.290204 0.103494 0.138495
612 1 0.406867 0.100976 0.127925
710 1 0.512459 0.0997585 0.140248
709 1 0.400467 0.0115119 0.13988
631 1 0.505273 0.193358 0.132739
611 1 0.501205 0.0128271 0.128326
616 1 0.600214 0.103164 0.131405
635 1 0.691148 0.198279 0.129039
717 1 0.784431 0.000323153 0.140026
620 1 0.80613 0.104763 0.130178
639 1 0.921348 0.194509 0.129254
701 1 0.994139 0.00121383 0.13865
722 1 0.103266 0.296379 0.138044
624 1 0.018536 0.309929 0.128839
745 1 0.184938 0.395918 0.137879
741 1 0.00223874 0.389955 0.138555
628 1 0.205942 0.288435 0.129107
647 1 0.285834 0.394962 0.130626
726 1 0.278963 0.305543 0.140008
632 1 0.378225 0.28879 0.129708
636 1 0.589732 0.309148 0.129878
655 1 0.697871 0.390637 0.128777
757 1 0.78258 0.391894 0.139665
640 1 0.810343 0.284327 0.129532
659 1 0.894795 0.389161 0.130643
738 1 0.907243 0.285476 0.138202
643 1 0.0999825 0.427913 0.128399
742 1 0.0946475 0.500554 0.138961
648 1 0.183361 0.520171 0.129512
746 1 0.292812 0.509574 0.140102
652 1 0.386679 0.481474 0.12922
651 1 0.499042 0.404748 0.130743
671 1 0.498406 0.598106 0.131284
753 1 0.608684 0.406658 0.139512
656 1 0.613239 0.515058 0.129457
754 1 0.703125 0.511681 0.140141
660 1 0.797349 0.479869 0.131101
644 1 0.985472 0.50402 0.130399
663 1 0.0655702 0.60809 0.130308
668 1 0.190132 0.719711 0.131275
667 1 0.283788 0.608725 0.130607
769 1 0.388671 0.606066 0.138224
766 1 0.30543 0.696379 0.139826
672 1 0.376551 0.707862 0.128054
676 1 0.597826 0.700205 0.130606
770 1 0.473453 0.716139 0.13848
675 1 0.700059 0.606495 0.129546
774 1 0.687846 0.703844 0.139305
695 1 0.729329 0.790197 0.130086
679 1 0.893112 0.609423 0.131871
664 1 0.974553 0.707785 0.132613
680 1 0.807469 0.693241 0.129549
683 1 0.0988674 0.8053 0.130102
785 1 0.19327 0.819818 0.139904
684 1 0.0101526 0.902679 0.127443
782 1 0.0816544 0.907407 0.139328
688 1 0.182284 0.904192 0.129776
607 1 0.30286 0.996628 0.129321
687 1 0.282112 0.814732 0.130163
692 1 0.416625 0.922825 0.128758
691 1 0.504222 0.813829 0.129785
790 1 0.501965 0.918194 0.139416
696 1 0.596122 0.919476 0.130895
789 1 0.40543 0.819448 0.137236
615 1 0.713548 0.995716 0.129037
700 1 0.799487 0.897874 0.129883
793 1 0.600684 0.809006 0.139193
699 1 0.905156 0.822724 0.130663
781 1 0.994767 0.813138 0.139428
619 1 0.902697 0.973663 0.129547
703 1 0.0732765 0.00990574 0.150226
704 1 0.00045452 0.116621 0.148978
708 1 0.183476 0.0847395 0.150941
705 1 0.200302 0.0114252 0.140545
729 1 0.390821 0.194962 0.140457
727 1 0.288135 0.186232 0.149849
707 1 0.295568 0.00714828 0.15041
712 1 0.393544 0.0932525 0.149778
713 1 0.598619 0.00972067 0.140534
716 1 0.593017 0.117283 0.151566
731 1 0.484821 0.196567 0.150258
714 1 0.692523 0.104683 0.1404
737 1 0.797455 0.187831 0.140788
735 1 0.701553 0.188453 0.151371
715 1 0.682601 0.011745 0.152069
718 1 0.892745 0.0964895 0.140457
720 1 0.801102 0.0915639 0.150379
719 1 0.908231 0.00274127 0.150247
723 1 0.0893718 0.205805 0.147601
743 1 0.104741 0.393321 0.148903
724 1 0.00343157 0.292567 0.147717
728 1 0.200586 0.298757 0.150041
732 1 0.350844 0.301797 0.149677
733 1 0.597968 0.205551 0.14161
730 1 0.495473 0.305845 0.140821
736 1 0.592743 0.288954 0.151195
734 1 0.699479 0.279567 0.140844
740 1 0.787954 0.303601 0.150289
739 1 0.890992 0.204605 0.149225
759 1 0.885561 0.388124 0.148654
763 1 0.0909193 0.590774 0.149339
748 1 0.189536 0.498035 0.148244
749 1 0.374313 0.402777 0.141529
747 1 0.274422 0.408602 0.148977
752 1 0.39796 0.511041 0.150503
750 1 0.498334 0.502449 0.140546
751 1 0.495451 0.420615 0.151209
771 1 0.505426 0.590234 0.150426
755 1 0.701539 0.405631 0.148833
756 1 0.601001 0.498371 0.150373
744 1 0.998544 0.485523 0.148471
758 1 0.889224 0.49497 0.140931
760 1 0.802987 0.500332 0.151084
765 1 0.192629 0.609744 0.140499
762 1 0.0929022 0.719483 0.140582
783 1 0.10911 0.799736 0.150144
862 1 0.0993618 0.696036 0.157847
767 1 0.292819 0.602366 0.150149
768 1 0.206285 0.70597 0.149525
773 1 0.59655 0.604482 0.140939
772 1 0.404564 0.697608 0.148314
776 1 0.595265 0.700451 0.150582
797 1 0.794799 0.799635 0.142832
777 1 0.786839 0.614999 0.14199
775 1 0.694923 0.601228 0.150465
795 1 0.693084 0.784302 0.152977
761 1 0.995981 0.60776 0.141402
778 1 0.887702 0.713421 0.140871
764 1 0.992154 0.70812 0.149666
779 1 0.896494 0.60156 0.149857
780 1 0.802746 0.699266 0.152983
788 1 0.191313 0.915749 0.149289
786 1 0.286915 0.914233 0.14067
787 1 0.318388 0.811332 0.148153
711 1 0.509385 0.999919 0.149768
791 1 0.501016 0.810555 0.14747
792 1 0.400743 0.927945 0.149941
794 1 0.70261 0.89208 0.14215
796 1 0.603201 0.898686 0.150049
800 1 0.798204 0.906057 0.15118
798 1 0.877933 0.895551 0.141374
799 1 0.895339 0.805028 0.151614
784 1 0.995997 0.897081 0.149556
802 1 0.078319 0.109867 0.160093
804 1 0.00360707 0.0983156 0.171038
823 1 0.0838543 0.19888 0.170245
803 1 0.097839 0.011579 0.168512
808 1 0.200578 0.110139 0.168094
806 1 0.291043 0.097779 0.159215
812 1 0.390562 0.1132 0.169946
809 1 0.386387 0.0110038 0.161147
810 1 0.478764 0.108431 0.161202
816 1 0.594273 0.102539 0.170199
813 1 0.587886 0.014929 0.1611
814 1 0.69819 0.100259 0.161935
820 1 0.788549 0.0984771 0.171044
835 1 0.694867 0.199426 0.171102
801 1 0.996798 0.00629284 0.16029
818 1 0.885583 0.0725479 0.16048
819 1 0.885522 0.0131019 0.17319
839 1 0.89641 0.19012 0.168963
822 1 0.0980041 0.279326 0.159569
845 1 0.175104 0.387683 0.159866
825 1 0.201486 0.205453 0.160815
827 1 0.300555 0.202784 0.171194
828 1 0.20168 0.297936 0.17033
826 1 0.288118 0.315656 0.16083
829 1 0.388883 0.213552 0.160837
832 1 0.391751 0.323566 0.170114
849 1 0.383084 0.395227 0.158265
830 1 0.489101 0.30704 0.16079
831 1 0.486368 0.207202 0.1709
833 1 0.591163 0.201046 0.160501
836 1 0.588051 0.298565 0.170238
834 1 0.691211 0.306027 0.158318
840 1 0.793039 0.283061 0.16856
855 1 0.703273 0.396698 0.167562
821 1 0.987785 0.207464 0.158454
841 1 0.995837 0.374035 0.157931
824 1 0.992996 0.294234 0.168877
837 1 0.801542 0.202477 0.159162
857 1 0.802201 0.399903 0.159587
838 1 0.89414 0.304437 0.160501
859 1 0.901052 0.398628 0.17158
843 1 0.0824559 0.401934 0.16902
842 1 0.0882629 0.492176 0.1591
848 1 0.173047 0.517439 0.169509
865 1 0.188643 0.593107 0.158516
847 1 0.274225 0.410976 0.170944
846 1 0.272672 0.48017 0.159525
852 1 0.378927 0.511053 0.167736
851 1 0.482889 0.411207 0.169116
850 1 0.503127 0.501411 0.16098
853 1 0.594947 0.411524 0.161198
856 1 0.602846 0.493406 0.172343
873 1 0.603496 0.592191 0.160171
854 1 0.696154 0.507436 0.15977
877 1 0.790307 0.596904 0.161145
860 1 0.790848 0.495874 0.170506
844 1 0.988368 0.499957 0.170196
858 1 0.907128 0.508847 0.159598
879 1 0.895508 0.592724 0.16937
863 1 0.0907074 0.621689 0.16867
868 1 0.191474 0.707336 0.166954
883 1 0.0954622 0.798501 0.169161
867 1 0.298467 0.632636 0.166519
866 1 0.294073 0.727845 0.158246
871 1 0.509399 0.601039 0.17097
872 1 0.401544 0.711495 0.168934
870 1 0.504021 0.733706 0.159532
869 1 0.412684 0.625629 0.158911
876 1 0.595695 0.690551 0.169787
875 1 0.679309 0.600386 0.171409
874 1 0.691273 0.680578 0.160605
880 1 0.797905 0.68744 0.168974
895 1 0.69339 0.785048 0.169569
861 1 0.999241 0.605807 0.159443
864 1 0.99128 0.708166 0.170505
878 1 0.910423 0.699629 0.160336
881 1 0.999494 0.794097 0.160652
882 1 0.0859951 0.899147 0.159897
885 1 0.19631 0.825636 0.158383
805 1 0.196842 0.998407 0.161325
888 1 0.185842 0.904475 0.171062
884 1 0.0013115 0.901092 0.170688
887 1 0.301755 0.813048 0.168204
807 1 0.28644 0.980502 0.169658
886 1 0.308034 0.895069 0.158731
892 1 0.399053 0.901605 0.169432
811 1 0.501909 0.99362 0.169497
889 1 0.404834 0.813657 0.158181
893 1 0.588378 0.811669 0.16007
891 1 0.493023 0.808301 0.170048
890 1 0.490115 0.91375 0.159254
896 1 0.587632 0.896607 0.169918
815 1 0.678645 0.986058 0.169514
894 1 0.696378 0.885135 0.16165
817 1 0.783645 0.989819 0.16119
900 1 0.78148 0.907195 0.17175
899 1 0.897869 0.800291 0.17171
897 1 0.810202 0.811351 0.161576
898 1 0.909817 0.899978 0.159777
902 1 0.095263 0.0983104 0.18043
908 1 0.188031 0.0992246 0.191615
923 1 0.0898602 0.19938 0.190476
925 1 0.18716 0.196633 0.179721
903 1 0.0714222 0.030876 0.191049
906 1 0.280375 0.0970269 0.179685
912 1 0.373121 0.108629 0.189595
909 1 0.38242 0.00765982 0.178659
910 1 0.495312 0.0877921 0.179017
916 1 0.590086 0.0997487 0.189587
931 1 0.488572 0.195522 0.187999
933 1 0.579254 0.192878 0.179638
911 1 0.490114 0.0167412 0.191008
914 1 0.681259 0.100485 0.180367
920 1 0.778211 0.0978251 0.188964
904 1 0.980141 0.106115 0.19228
918 1 0.909826 0.109257 0.180995
922 1 0.0871494 0.29257 0.179843
928 1 0.184852 0.310992 0.189798
945 1 0.167407 0.399156 0.179817