ITEM: TIMESTEP
45000
ITEM: NUMBER OF ATOMS
5000
ITEM: BOX BOUNDS pp pp pp
0.0000000000000000e+00 8.0180007035687204e+00
0.0000000000000000e+00 8.0180007035687204e+00
0.0000000000000000e+00 8.0180007035687197e+01
ITEM: ATOMS id type xs ys zs
8 1 0.178243 0.0827334 0.00733049
25 1 0.188194 0.186701 0.00228599
7 1 0.295536 0.0158182 0.0110122
12 1 0.396372 0.0823649 0.0103928
27 1 0.301361 0.175039 0.0114994
16 1 0.583462 0.0945319 0.00872198
31 1 0.494587 0.187117 0.0102433
33 1 0.593957 0.186264 0.000247741
15 1 0.688781 0.0116437 0.00795953
137 1 0.79433 0.184419 0.0171101
4 1 0.98202 0.0963165 0.0105158
20 1 0.802159 0.073939 0.0106611
39 1 0.905416 0.189586 0.0100649
21 1 0.992434 0.173373 0.00119077
23 1 0.0750139 0.201326 0.0112039
28 1 0.179517 0.298174 0.0109411
43 1 0.0940384 0.392856 0.00949494
32 1 0.381327 0.283762 0.00961891
49 1 0.395158 0.388806 0.00102488
47 1 0.297174 0.395957 0.0108744
26 1 0.267809 0.303046 0.00162315
36 1 0.596739 0.292333 0.00980561
130 1 0.496257 0.314138 0.0172537
30 1 0.491449 0.269258 0.00085129
35 1 0.690671 0.213754 0.0087245
55 1 0.685308 0.391231 0.0103737
40 1 0.786994 0.293986 0.0105755
37 1 0.786211 0.206366 0.00127684
34 1 0.68139 0.3105 6.70618e-05
24 1 0.978146 0.290285 0.0100361
59 1 0.872117 0.398378 0.011712
44 1 0.0514988 0.509938 0.00868609
48 1 0.189868 0.487461 0.00923782
52 1 0.398498 0.505193 0.0165914
46 1 0.298997 0.503126 0.00229169
69 1 0.399712 0.599271 0.00309397
51 1 0.497879 0.413246 0.0098796
56 1 0.594869 0.496015 0.0114941
71 1 0.49924 0.585619 0.014149
50 1 0.494121 0.516069 0.00199028
53 1 0.584313 0.416395 0.000563673
60 1 0.78773 0.487733 0.011983
75 1 0.695257 0.593689 0.0128024
57 1 0.789208 0.40354 0.0020508
77 1 0.797517 0.580895 0.00264461
79 1 0.922225 0.582393 0.0113905
58 1 0.903739 0.483743 0.00252405
61 1 0.00768008 0.614354 0.00205717
63 1 0.106701 0.626593 0.0102249
62 1 0.0882201 0.709498 0.00025946
68 1 0.206991 0.726105 0.0109156
67 1 0.285327 0.608751 0.0125147
72 1 0.377093 0.687111 0.0114838
65 1 0.209497 0.600388 0.00212537
66 1 0.302941 0.71304 0.00108805
70 1 0.490708 0.683822 0.00378253
89 1 0.409802 0.796314 0.00400908
76 1 0.604787 0.691976 0.0110941
95 1 0.703695 0.790115 0.0109026
93 1 0.610357 0.784853 0.00344228
73 1 0.600626 0.600044 0.00153387
74 1 0.701476 0.681142 0.00285461
64 1 0.992938 0.71879 0.00927132
80 1 0.824001 0.685246 0.00999907
78 1 0.899067 0.688484 0.000759039
3 1 0.0778626 0.995118 0.0103478
83 1 0.0782207 0.811375 0.00992107
88 1 0.186821 0.908788 0.0100055
82 1 0.10439 0.912076 0.00103288
87 1 0.297846 0.821959 0.0104429
92 1 0.392765 0.903259 0.0129843
85 1 0.205521 0.805037 0.00107446
86 1 0.30277 0.909548 0.00176142
11 1 0.510341 0.994463 0.0104879
91 1 0.511177 0.801564 0.0134112
9 1 0.400747 0.990292 0.0011385
13 1 0.593119 0.978701 0.00066299
90 1 0.519921 0.869482 0.00186131
96 1 0.617145 0.901688 0.0114671
100 1 0.785939 0.903779 0.00935094
19 1 0.893511 0.99072 0.0122153
84 1 0.981081 0.905558 0.0105113
99 1 0.892451 0.819678 0.0104721
81 1 0.989753 0.80259 0.000767106
102 1 0.0854102 0.102596 0.0190737
104 1 0.0115969 0.0938788 0.0314915
105 1 0.166348 0.00355849 0.0192326
108 1 0.188666 0.108182 0.0294222
106 1 0.28961 0.0996801 0.0217174
107 1 0.293632 0.0213015 0.031496
110 1 0.485478 0.090934 0.0201132
112 1 0.408831 0.0886778 0.0309032
131 1 0.500004 0.197952 0.0319707
116 1 0.570211 0.0747362 0.0303686
133 1 0.598731 0.199565 0.0206254
114 1 0.681659 0.117662 0.0178146
113 1 0.60048 0.018231 0.0195731
120 1 0.797093 0.11435 0.0308611
135 1 0.693041 0.167212 0.0298183
115 1 0.695923 0.0326152 0.0310894
121 1 0.991236 0.197011 0.0205985
118 1 0.886409 0.108546 0.0210165
139 1 0.899616 0.183772 0.03105
117 1 0.807229 0.0136599 0.0230492
123 1 0.0882454 0.206811 0.0307925
122 1 0.0897068 0.299298 0.0198555
124 1 0.00968701 0.319683 0.0292305
125 1 0.17415 0.208858 0.0200629
128 1 0.18531 0.283469 0.0296605
145 1 0.187373 0.389525 0.0185371
126 1 0.298308 0.292449 0.0207476
127 1 0.292572 0.206131 0.0312319
149 1 0.405475 0.385233 0.0204309
129 1 0.403209 0.217991 0.0214748
132 1 0.400437 0.307259 0.0298735
151 1 0.498582 0.397398 0.0297199
153 1 0.597238 0.367027 0.0208
136 1 0.607562 0.278106 0.0311758
134 1 0.702843 0.274765 0.0215126
140 1 0.794741 0.285646 0.0311988
155 1 0.703414 0.380844 0.0293387
138 1 0.893875 0.279325 0.0209207
157 1 0.813746 0.398308 0.0235986
161 1 0.0266803 0.596845 0.02028
143 1 0.109629 0.41358 0.030523
141 1 0.0189771 0.408103 0.0201965
142 1 0.121931 0.507807 0.019882
144 1 0.000285702 0.505566 0.0305588
148 1 0.192092 0.502933 0.0318913
146 1 0.248155 0.510159 0.0204158
147 1 0.282766 0.401082 0.0283605
152 1 0.384422 0.501295 0.0305797
150 1 0.515126 0.501878 0.0220583
171 1 0.486329 0.591551 0.0313482
156 1 0.612325 0.495888 0.0308579
154 1 0.708054 0.486271 0.0229598
175 1 0.700916 0.585219 0.0317489
177 1 0.796328 0.599445 0.020316
160 1 0.814972 0.516671 0.029822
159 1 0.917673 0.408908 0.0300277
158 1 0.9079 0.510477 0.0220543
163 1 0.105632 0.604603 0.0317344
162 1 0.0884612 0.71984 0.0231411
164 1 0.0221388 0.69143 0.0324241
168 1 0.183249 0.727789 0.0322035
169 1 0.356968 0.60115 0.0222884
165 1 0.201344 0.622875 0.0231484
166 1 0.299314 0.7281 0.019963
167 1 0.273103 0.6082 0.0329448
172 1 0.368484 0.704799 0.030702
173 1 0.595238 0.604979 0.0220802
170 1 0.489492 0.700289 0.0225538
176 1 0.590389 0.70011 0.0297446
193 1 0.623249 0.795822 0.0226548
174 1 0.698302 0.692555 0.022949
195 1 0.718235 0.794788 0.0296662
197 1 0.793838 0.799227 0.0202689
179 1 0.929591 0.61272 0.030773
180 1 0.814599 0.692647 0.0289184
178 1 0.934627 0.703006 0.0204061
199 1 0.910117 0.770475 0.0314007
103 1 0.0993734 0.995996 0.0304174
183 1 0.0911229 0.834249 0.0312062
182 1 0.0807504 0.904939 0.0208119
185 1 0.191668 0.825932 0.0203499
187 1 0.297244 0.816598 0.0309844
188 1 0.204818 0.922582 0.0289616
186 1 0.296288 0.939485 0.0211361
192 1 0.381622 0.91886 0.0303077
109 1 0.410457 0.9911 0.0212103
189 1 0.405856 0.801634 0.0213177
190 1 0.540514 0.906041 0.0220455
191 1 0.5059 0.804665 0.0306862
111 1 0.505869 0.969034 0.0314138
196 1 0.639342 0.891208 0.0294923
194 1 0.71558 0.924476 0.019834
181 1 0.980076 0.817436 0.0197515
101 1 0.982012 0.995606 0.0216498
184 1 0.985778 0.912402 0.0331792
119 1 0.885718 0.991204 0.0325461
198 1 0.890498 0.901355 0.0206613
200 1 0.801046 0.888865 0.0301175
202 1 0.091519 0.107718 0.0416476
223 1 0.0915792 0.198707 0.0500308
203 1 0.0942799 0.0105081 0.0503518
205 1 0.197112 0.0137588 0.0414867
208 1 0.20103 0.110881 0.0500172
206 1 0.299058 0.104451 0.0415648
207 1 0.291344 0.00352215 0.051385
212 1 0.395361 0.0986912 0.050957
210 1 0.502709 0.080726 0.0422251
231 1 0.511628 0.184727 0.0492568
233 1 0.593791 0.194548 0.0406952
211 1 0.512612 0.00255079 0.0522203
216 1 0.597786 0.0993289 0.0521187
214 1 0.684784 0.110422 0.0417655
215 1 0.692155 0.0197303 0.0507527
217 1 0.792314 0.0194499 0.0414697
220 1 0.771439 0.11038 0.0508614
213 1 0.608646 0.0131108 0.040685
204 1 0.982667 0.12488 0.049503
218 1 0.886792 0.106551 0.0410698
201 1 0.985046 0.0172464 0.0419011
221 1 0.0120374 0.223878 0.0406916
225 1 0.192516 0.202133 0.0397582
222 1 0.1071 0.322407 0.0398981
243 1 0.104149 0.392549 0.0518139
227 1 0.300334 0.21271 0.0486374
229 1 0.389312 0.221587 0.0397368
228 1 0.214336 0.292393 0.0500637
226 1 0.29974 0.322315 0.0377917
247 1 0.305298 0.391553 0.050624
232 1 0.406097 0.31502 0.0503374
230 1 0.501252 0.300579 0.04055
236 1 0.579927 0.29383 0.0496059
237 1 0.794802 0.203793 0.040791
235 1 0.694814 0.201603 0.0515921
234 1 0.690053 0.28717 0.0425761
253 1 0.603587 0.391335 0.038917
255 1 0.69342 0.38558 0.0502972
224 1 0.99601 0.311821 0.0496296
239 1 0.879037 0.205566 0.0494837
257 1 0.821802 0.394276 0.0390699
240 1 0.809211 0.313109 0.0502441
238 1 0.918848 0.304291 0.0392891
242 1 0.0870547 0.508811 0.0409976
241 1 0.00684423 0.407549 0.0425342
244 1 0.00941833 0.505017 0.0517233
248 1 0.186316 0.497081 0.0508551
265 1 0.185968 0.59589 0.0421502
245 1 0.215515 0.403878 0.0412739
246 1 0.289498 0.50132 0.0396236
252 1 0.393043 0.508249 0.0482129
269 1 0.388673 0.598738 0.0402622
251 1 0.518989 0.40369 0.0484937
249 1 0.421691 0.416361 0.0403307
250 1 0.515325 0.506579 0.0405631
256 1 0.622017 0.506508 0.0476879
254 1 0.724041 0.482126 0.0383451
260 1 0.781017 0.490983 0.0498678
259 1 0.916641 0.403373 0.0509155
258 1 0.907831 0.508327 0.039201
279 1 0.886233 0.576358 0.0506588
261 1 0.0236044 0.61756 0.0429169
262 1 0.118502 0.699543 0.0428641
283 1 0.113991 0.798866 0.050516
267 1 0.322103 0.60724 0.0501594
266 1 0.28851 0.714811 0.0402536
272 1 0.405974 0.74686 0.0489337
270 1 0.482435 0.699909 0.0377392
271 1 0.470146 0.63263 0.0489853
273 1 0.596928 0.619873 0.0418137
293 1 0.603244 0.795931 0.0395759
275 1 0.682988 0.610025 0.0522948
276 1 0.612087 0.707954 0.0499608
274 1 0.719251 0.714433 0.0400599
277 1 0.791882 0.615184 0.0437233
280 1 0.79256 0.709521 0.0518775
278 1 0.90481 0.68088 0.0447603
297 1 0.812565 0.795867 0.0391854
282 1 0.104471 0.919159 0.0417236
288 1 0.197032 0.906968 0.0507565
209 1 0.386886 0.989179 0.0407735
285 1 0.20457 0.82247 0.0402755
287 1 0.282131 0.815921 0.0507301
286 1 0.28833 0.91423 0.0410098
292 1 0.379045 0.903723 0.050808
291 1 0.534153 0.80769 0.0495694
289 1 0.42735 0.830146 0.039259
290 1 0.519975 0.91765 0.0432781
295 1 0.694686 0.818721 0.0511574
296 1 0.614634 0.906502 0.0505152
294 1 0.707578 0.909149 0.0397035
300 1 0.781962 0.916388 0.0519533
281 1 0.995598 0.802117 0.0416661
284 1 0.997089 0.884778 0.050652
299 1 0.870916 0.806757 0.0518277
219 1 0.885409 0.996123 0.0494808
298 1 0.89704 0.89193 0.0427628
302 1 0.110587 0.115035 0.0599293
304 1 0.00892521 0.101787 0.0677857
305 1 0.212803 0.0203644 0.0616443
306 1 0.313617 0.095823 0.0616098
308 1 0.213332 0.120602 0.069438
310 1 0.479844 0.112252 0.0614154
333 1 0.578552 0.195595 0.0618312
313 1 0.599367 0.0103559 0.0613571
314 1 0.70082 0.0952316 0.0615342
317 1 0.791444 0.0217747 0.0603554
318 1 0.888192 0.120019 0.0601166
301 1 0.987739 0.00683674 0.0560707
323 1 0.0991798 0.213955 0.0682548
322 1 0.0899419 0.28463 0.0586376
341 1 0.0124307 0.388734 0.0605055
325 1 0.202681 0.226253 0.0608457
329 1 0.392254 0.201863 0.0587683
327 1 0.31745 0.224438 0.0694782
326 1 0.310887 0.310198 0.0608665
345 1 0.20416 0.380487 0.0588546
330 1 0.484187 0.297015 0.0610704
335 1 0.69194 0.200042 0.0696914
334 1 0.684197 0.298723 0.0599577
353 1 0.602126 0.398904 0.0600865
340 1 0.798615 0.321023 0.0687258
321 1 0.999443 0.207156 0.060091
324 1 0.993842 0.290994 0.0697023
337 1 0.800952 0.215049 0.0602841
338 1 0.918181 0.306409 0.0599059
342 1 0.12052 0.481099 0.0624914
344 1 0.00550726 0.494883 0.0689755
348 1 0.211729 0.481445 0.06988
346 1 0.295326 0.502398 0.059011
365 1 0.202948 0.59174 0.0610712
349 1 0.430193 0.409683 0.0574474
351 1 0.49931 0.406195 0.0684556
350 1 0.512424 0.497353 0.0581597
369 1 0.407402 0.576455 0.0583084
373 1 0.569904 0.598985 0.056507
356 1 0.588743 0.501527 0.0688517
354 1 0.676956 0.506207 0.0595464
357 1 0.796308 0.404469 0.0596933
360 1 0.78496 0.500152 0.0687773
377 1 0.790987 0.588605 0.0594582
358 1 0.894149 0.492677 0.0595355
263 1 0.0927616 0.602204 0.0539947
362 1 0.118903 0.71487 0.0612479
363 1 0.104824 0.600682 0.068866
364 1 0.00782811 0.721334 0.0687177
268 1 0.22406 0.689879 0.0532413
366 1 0.336431 0.722746 0.0585828
368 1 0.227343 0.68667 0.068061
370 1 0.476673 0.694934 0.0601307
372 1 0.407296 0.673663 0.0692744
393 1 0.587315 0.781542 0.060888
376 1 0.575461 0.674431 0.0675587
374 1 0.696997 0.711356 0.0597437
375 1 0.683151 0.617177 0.0685615
380 1 0.796519 0.702065 0.0689651
264 1 0.998382 0.713257 0.0530536
361 1 0.993845 0.609569 0.0610537
379 1 0.889831 0.601283 0.0695881
378 1 0.899107 0.695402 0.061124
382 1 0.0877772 0.900299 0.0597212
383 1 0.106991 0.810705 0.0692044
385 1 0.211503 0.821435 0.0617031
386 1 0.320772 0.93121 0.0617939
389 1 0.401338 0.823111 0.0603993
309 1 0.424816 0.995502 0.0599566
390 1 0.517633 0.897457 0.0592933
396 1 0.586108 0.903279 0.0700722
395 1 0.665113 0.81024 0.0701341
394 1 0.692372 0.910052 0.0602986
400 1 0.790533 0.929396 0.0678863
381 1 0.989809 0.812827 0.0599761
397 1 0.800236 0.807465 0.0621588
398 1 0.915408 0.917155 0.0630211
402 1 0.0959878 0.0972568 0.0794291
307 1 0.30274 0.029272 0.0728689
406 1 0.288434 0.133325 0.0804049
405 1 0.20318 0.0396825 0.0813433
409 1 0.389597 0.0403943 0.0816677
331 1 0.48794 0.198237 0.0718914
312 1 0.4039 0.0991101 0.0711115
410 1 0.512628 0.0946301 0.0813767
429 1 0.41072 0.199908 0.0818047
311 1 0.499063 0.0154635 0.0707162
320 1 0.791047 0.113043 0.0705495
315 1 0.687501 0.0230216 0.0734197
316 1 0.607228 0.115924 0.07183
414 1 0.678214 0.110856 0.0827562
417 1 0.777089 0.0181238 0.0805513
319 1 0.90176 0.0432882 0.0713375
418 1 0.893449 0.121179 0.0813766
421 1 0.990339 0.195257 0.0775878
401 1 0.9944 0.00884906 0.0823249
343 1 0.107661 0.358254 0.0707174
425 1 0.183209 0.205099 0.0778777
422 1 0.0774088 0.28118 0.0807175
441 1 0.0038898 0.394945 0.0784844
328 1 0.229154 0.30901 0.0720928
426 1 0.297842 0.265105 0.0814513
449 1 0.371643 0.39817 0.0813312
332 1 0.412993 0.326922 0.0710264
336 1 0.582625 0.294364 0.0715204
430 1 0.493896 0.300438 0.0810584
433 1 0.589118 0.221204 0.0826409
355 1 0.687412 0.399156 0.0711824
437 1 0.777226 0.203458 0.0802401
434 1 0.696173 0.300054 0.080294
457 1 0.788653 0.393957 0.0819935
339 1 0.879189 0.204527 0.0701764
438 1 0.881798 0.322488 0.0798194
442 1 0.0952699 0.494054 0.0790017
347 1 0.322894 0.412077 0.0706293
367 1 0.306342 0.59156 0.0702308
445 1 0.213488 0.423171 0.0811024
446 1 0.30005 0.507395 0.0792658
465 1 0.201053 0.598473 0.0780036
352 1 0.407071 0.493583 0.0707659
450 1 0.493262 0.477117 0.0811777
371 1 0.49363 0.586086 0.0723191
469 1 0.406631 0.591769 0.0810004
453 1 0.609377 0.402023 0.0814649
454 1 0.690772 0.526207 0.0770662
359 1 0.90323 0.41914 0.0708084
458 1 0.88903 0.507583 0.0801625
461 1 0.979552 0.599887 0.0775055
462 1 0.122625 0.721901 0.080133
464 1 0.00765919 0.706842 0.0866774
387 1 0.3192 0.789125 0.0702421
466 1 0.305191 0.693184 0.0795897
489 1 0.390624 0.787737 0.080505
391 1 0.481841 0.799014 0.0713894
473 1 0.592395 0.602361 0.0807943
470 1 0.488184 0.699626 0.0812025
493 1 0.57602 0.787812 0.079286
474 1 0.686362 0.700535 0.0777277
477 1 0.777778 0.613373 0.078712
480 1 0.784584 0.721778 0.0873167
478 1 0.889905 0.708542 0.0790984
303 1 0.113592 0.988967 0.0715302
384 1 0.00954318 0.913724 0.0709505
482 1 0.108499 0.891928 0.0794677
388 1 0.212922 0.910631 0.0717019
485 1 0.231184 0.803692 0.0814333
486 1 0.310125 0.919398 0.0802365
392 1 0.412192 0.911352 0.070448
413 1 0.594511 0.986105 0.0809965
490 1 0.491392 0.894908 0.0814265
494 1 0.689173 0.908336 0.0789475
497 1 0.781478 0.811357 0.0757273
495 1 0.690689 0.806913 0.087406
399 1 0.90295 0.814252 0.0705686
481 1 0.987161 0.810244 0.0800272
498 1 0.856019 0.905537 0.0779806
499 1 0.884023 0.806259 0.0872089
403 1 0.0940439 0.000975048 0.0918732
423 1 0.0895446 0.198306 0.0882797
502 1 0.0943468 0.110459 0.100904
404 1 0.00587037 0.0960617 0.0928817
408 1 0.196228 0.1344 0.0901123
506 1 0.242343 0.0818921 0.100542
412 1 0.35972 0.0984275 0.0923175
510 1 0.470775 0.100764 0.0998485
411 1 0.471717 0.00258292 0.089902
416 1 0.588927 0.0917766 0.091516
533 1 0.587698 0.195603 0.099671
420 1 0.795612 0.120487 0.0916468
514 1 0.707826 0.0814228 0.100042
521 1 0.973226 0.197218 0.102088
439 1 0.914679 0.189066 0.0915233
518 1 0.888513 0.0984239 0.10235
517 1 0.80292 0.00282686 0.100791
419 1 0.890303 0.0217351 0.0914486
522 1 0.0760875 0.292782 0.100213
525 1 0.178943 0.210551 0.101053
545 1 0.179414 0.374018 0.0994034
428 1 0.191919 0.281507 0.0882255
432 1 0.394304 0.294285 0.0918532
427 1 0.290519 0.219153 0.0948945
526 1 0.285187 0.312759 0.10295
447 1 0.295056 0.39641 0.0911716
431 1 0.479404 0.204455 0.0919826
529 1 0.401721 0.213996 0.103047
530 1 0.500761 0.30378 0.10091
451 1 0.50807 0.381404 0.0901023
436 1 0.595479 0.303365 0.0928739
549 1 0.409895 0.399659 0.0994765
435 1 0.700349 0.201032 0.092175
534 1 0.697568 0.311606 0.101919
424 1 0.983095 0.307696 0.0886637
537 1 0.814782 0.213019 0.0990948
440 1 0.811363 0.303606 0.0911114
538 1 0.895381 0.311395 0.101618
459 1 0.897066 0.397172 0.0907594
443 1 0.0986203 0.409787 0.0890653
448 1 0.199206 0.509831 0.0903546
542 1 0.0839925 0.511429 0.0966221
565 1 0.182763 0.595741 0.100068
452 1 0.376429 0.496511 0.0904041
546 1 0.282797 0.486382 0.0991489
569 1 0.388386 0.584309 0.098506
550 1 0.506409 0.501208 0.0989356
553 1 0.596713 0.410691 0.1008
455 1 0.695654 0.400631 0.0919862
456 1 0.600141 0.509178 0.089445
554 1 0.70313 0.510877 0.0990884
460 1 0.79235 0.530375 0.0889034
557 1 0.79305 0.418944 0.0996904
541 1 0.997924 0.401296 0.0984472
444 1 0.987418 0.492766 0.0888775
558 1 0.883603 0.517331 0.0971943
483 1 0.115903 0.786046 0.0912635
463 1 0.116474 0.622188 0.0877331
562 1 0.0897631 0.690051 0.0986168
585 1 0.19983 0.796054 0.100901
467 1 0.302296 0.607845 0.0885627
468 1 0.20999 0.698838 0.0916824
566 1 0.292558 0.674026 0.100105
487 1 0.323619 0.798358 0.0913009
589 1 0.397176 0.768872 0.101598
471 1 0.4939 0.601509 0.090338
472 1 0.402078 0.691116 0.0900985
570 1 0.523028 0.702839 0.100508
491 1 0.497251 0.798962 0.0920069
476 1 0.591636 0.708616 0.0894769
573 1 0.609191 0.601415 0.0975415
475 1 0.697501 0.62225 0.0889019
574 1 0.698957 0.719397 0.0973309
577 1 0.790627 0.629281 0.0980057
597 1 0.790177 0.795319 0.0985804
561 1 0.978624 0.605236 0.09771
479 1 0.90139 0.608922 0.0884554
578 1 0.900077 0.698972 0.0995036
505 1 0.18918 0.97403 0.102124
582 1 0.0977087 0.888769 0.101693
484 1 0.00731126 0.911893 0.0894435
488 1 0.18805 0.898814 0.0897019
407 1 0.283331 0.998506 0.0907274
509 1 0.387376 0.995292 0.0992145
586 1 0.288154 0.883926 0.100892
492 1 0.393221 0.893872 0.0910319
513 1 0.576115 0.987465 0.100483
593 1 0.594906 0.807996 0.101024
590 1 0.48499 0.87983 0.100945
496 1 0.581278 0.900774 0.0915292
415 1 0.701096 0.990916 0.0903928
594 1 0.705514 0.886708 0.0994482
500 1 0.803033 0.915104 0.0902978
501 1 0.998583 0.998448 0.100396
581 1 0.98855 0.804845 0.098578
598 1 0.893197 0.889793 0.100314
602 1 0.104519 0.10627 0.121112
503 1 0.0873167 0.00782503 0.110881
508 1 0.185041 0.0949895 0.112173
606 1 0.312919 0.0991597 0.120279
512 1 0.384248 0.0906021 0.110208
527 1 0.283231 0.190352 0.108896
609 1 0.416757 0.00902158 0.121226
610 1 0.487869 0.104643 0.117993
516 1 0.591246 0.0935531 0.10864
613 1 0.570531 0.0082988 0.12135
531 1 0.507082 0.199127 0.109663
614 1 0.698137 0.0828206 0.119999
520 1 0.797037 0.143111 0.110625
535 1 0.691889 0.194461 0.108492
637 1 0.790173 0.199638 0.120676
504 1 0.996356 0.104676 0.110017
618 1 0.89655 0.0960701 0.118773
523 1 0.0768193 0.210116 0.110205
621 1 0.00704892 0.208354 0.121139
622 1 0.0845879 0.335196 0.118731
625 1 0.185763 0.215894 0.119182
528 1 0.177837 0.302298 0.109857
626 1 0.303015 0.3001 0.119026
629 1 0.391918 0.207228 0.118187
532 1 0.405942 0.322848 0.110816
630 1 0.495647 0.301624 0.118824
649 1 0.422523 0.398908 0.122184
536 1 0.601933 0.310173 0.110963
633 1 0.617198 0.201832 0.119269
634 1 0.699144 0.284656 0.118377
539 1 0.891609 0.213205 0.113266
524 1 0.983249 0.322909 0.111071
540 1 0.813012 0.302787 0.11011
638 1 0.898585 0.315858 0.120221
543 1 0.0744171 0.420051 0.108991
645 1 0.189781 0.431801 0.118427
642 1 0.0927355 0.501183 0.119463
548 1 0.177734 0.487072 0.105776
563 1 0.0882266 0.575548 0.109111
665 1 0.192095 0.599837 0.118811
547 1 0.296081 0.416447 0.108773
646 1 0.318709 0.512746 0.119378
552 1 0.393885 0.491978 0.108234
567 1 0.269012 0.591112 0.109171
653 1 0.594125 0.409681 0.11921
551 1 0.512888 0.407105 0.110077
650 1 0.483671 0.497966 0.117023
673 1 0.593534 0.594877 0.120725
555 1 0.706044 0.417283 0.111178
556 1 0.603517 0.508977 0.110569
654 1 0.682472 0.501487 0.120166
560 1 0.79557 0.509245 0.109309
641 1 0.98682 0.432352 0.120204
559 1 0.890465 0.416129 0.110663
544 1 0.983688 0.499938 0.106356
657 1 0.801049 0.405445 0.11898
658 1 0.899478 0.515536 0.119499
662 1 0.0924538 0.687878 0.118683
583 1 0.102228 0.796365 0.111888
568 1 0.173977 0.693036 0.108848
564 1 0.000739246 0.704174 0.109512
666 1 0.28908 0.674576 0.120017
572 1 0.380168 0.663758 0.110125
587 1 0.292076 0.782269 0.108698
669 1 0.410446 0.60136 0.1206
571 1 0.490697 0.601284 0.110031
670 1 0.525012 0.69335 0.120616
591 1 0.496589 0.791469 0.109972
575 1 0.707457 0.611763 0.107307
576 1 0.624459 0.697857 0.107717
674 1 0.672909 0.698579 0.120877
677 1 0.780821 0.60036 0.118395
580 1 0.783655 0.706414 0.109492
595 1 0.689907 0.797596 0.112617
579 1 0.874817 0.606205 0.109145
661 1 0.994607 0.605115 0.117779
678 1 0.888516 0.692471 0.118438
681 1 0.99891 0.779203 0.119799
697 1 0.803087 0.791977 0.120042
685 1 0.199088 0.80336 0.120906
682 1 0.097389 0.908159 0.119095
507 1 0.306008 0.989222 0.109207
588 1 0.208481 0.878379 0.110022
605 1 0.210459 0.981625 0.118742
686 1 0.327687 0.90424 0.119452
592 1 0.394478 0.89 0.109146
689 1 0.428749 0.807983 0.119958
693 1 0.593908 0.819705 0.119921
511 1 0.482934 0.979629 0.110047
690 1 0.493847 0.913717 0.120679
596 1 0.591957 0.905654 0.111412
515 1 0.691327 0.989547 0.11007
694 1 0.705049 0.898977 0.120109
600 1 0.795693 0.883417 0.11129
617 1 0.80127 0.989629 0.117463
519 1 0.897761 0.983693 0.109186
601 1 0.976759 0.988201 0.119844
599 1 0.895321 0.803036 0.108779
584 1 0.992157 0.892469 0.110515
698 1 0.892053 0.885191 0.120116
623 1 0.115954 0.186557 0.132283
608 1 0.205639 0.0767912 0.129317
706 1 0.29939 0.0941206 0.138682
607 1 0.315997 0.00235376 0.128092
709 1 0.391123 0.00519544 0.139102
612 1 0.401499 0.124768 0.129439
710 1 0.489362 0.11204 0.138787
631 1 0.512206 0.193159 0.129069
616 1 0.608695 0.0881672 0.130228
714 1 0.713967 0.131527 0.139554
635 1 0.683287 0.183342 0.128416
620 1 0.797861 0.100403 0.127893
713 1 0.620753 0.00616913 0.140046
604 1 0.984832 0.0921257 0.12708
701 1 0.983186 0.00849566 0.139476
718 1 0.908707 0.114233 0.138111
717 1 0.804429 0.0186765 0.138158
624 1 0.0255949 0.313748 0.130478
627 1 0.289198 0.200961 0.131232
628 1 0.20698 0.293301 0.130013
726 1 0.303056 0.305493 0.139979
729 1 0.41207 0.213773 0.139103
632 1 0.404501 0.321107 0.131553
730 1 0.503827 0.324056 0.139728
636 1 0.596796 0.309902 0.130424
655 1 0.696158 0.387573 0.128237
640 1 0.775937 0.294957 0.129413
757 1 0.796235 0.391513 0.137192
639 1 0.911513 0.204874 0.129853
643 1 0.0947448 0.414356 0.12963
663 1 0.101221 0.599641 0.129436
648 1 0.18888 0.501119 0.130067
742 1 0.0915796 0.503141 0.139613
745 1 0.191498 0.40208 0.140137
647 1 0.285515 0.403877 0.129503
652 1 0.383482 0.50111 0.131195
667 1 0.301868 0.590056 0.131084
651 1 0.512641 0.451545 0.129578
671 1 0.518187 0.597124 0.129848
656 1 0.631489 0.498853 0.130578
773 1 0.606799 0.59882 0.140304
675 1 0.693552 0.59984 0.128923
660 1 0.803675 0.517244 0.130582
644 1 0.972713 0.530023 0.128962
659 1 0.894127 0.426175 0.128381
741 1 0.963431 0.412164 0.138945
785 1 0.193419 0.783006 0.139312
668 1 0.200521 0.682245 0.129009
766 1 0.308232 0.690851 0.138254
687 1 0.306354 0.7885 0.126321
789 1 0.39783 0.794433 0.138555
672 1 0.413886 0.700032 0.128963
676 1 0.589035 0.703469 0.132587
691 1 0.508976 0.793446 0.128762
680 1 0.775275 0.698946 0.128771
695 1 0.681603 0.796953 0.128899
664 1 0.997794 0.687082 0.128875
679 1 0.878379 0.619074 0.127994
699 1 0.89523 0.786476 0.130879
777 1 0.812821 0.608842 0.139992
778 1 0.925776 0.683091 0.140346
603 1 0.0986655 0.991637 0.128729
683 1 0.0884349 0.825603 0.130796
705 1 0.205273 0.984311 0.139297
688 1 0.208237 0.90342 0.129989
786 1 0.295198 0.876079 0.13872
692 1 0.390913 0.900498 0.130366
611 1 0.492651 0.988386 0.132092
793 1 0.583938 0.804739 0.139453
790 1 0.514174 0.896782 0.139582
615 1 0.720104 0.982545 0.130322
696 1 0.605644 0.924754 0.129745
700 1 0.786781 0.878187 0.13177
619 1 0.875244 0.971964 0.129542
684 1 0.987621 0.895464 0.129247
798 1 0.910102 0.886606 0.139954
725 1 0.197327 0.19965 0.140723
702 1 0.10446 0.0740083 0.140732
723 1 0.0943077 0.177671 0.148724
802 1 0.105232 0.0835852 0.157294
708 1 0.215836 0.098439 0.147844
712 1 0.399427 0.0969584 0.149271
727 1 0.317257 0.198807 0.146343
806 1 0.294874 0.0785988 0.15774
825 1 0.201438 0.179733 0.157617
733 1 0.579287 0.186814 0.140482
716 1 0.581534 0.0794821 0.150377
735 1 0.691265 0.196105 0.149613
720 1 0.783766 0.0944804 0.150573
715 1 0.682167 0.00494052 0.151253
704 1 0.986124 0.109894 0.149967
719 1 0.89073 0.0127607 0.147995
722 1 0.0982694 0.297122 0.140908
728 1 0.191137 0.285724 0.150398
721 1 0.0123081 0.204385 0.140498
732 1 0.39576 0.291304 0.149186
747 1 0.299214 0.375156 0.151254
731 1 0.485244 0.212352 0.149544
736 1 0.59078 0.288336 0.150928
734 1 0.696693 0.311708 0.143079
753 1 0.612469 0.39458 0.141011
738 1 0.896863 0.30463 0.140986
739 1 0.908946 0.221525 0.151336
724 1 0.995547 0.30957 0.149241
737 1 0.811096 0.219768 0.140656
740 1 0.812695 0.335561 0.149501
743 1 0.118811 0.400614 0.15063
744 1 0.00873077 0.500618 0.14847
765 1 0.195313 0.576285 0.142571
749 1 0.383202 0.406559 0.141777
746 1 0.28739 0.488781 0.140809
769 1 0.395022 0.586929 0.141738
748 1 0.206064 0.50162 0.151872
751 1 0.494228 0.406124 0.1507
750 1 0.50409 0.497047 0.141277
752 1 0.420662 0.503383 0.15046
756 1 0.594717 0.498959 0.149453
771 1 0.497719 0.595087 0.15097
754 1 0.718856 0.488342 0.140412
755 1 0.706422 0.415328 0.151667
775 1 0.718117 0.596945 0.150035
758 1 0.894192 0.509163 0.142652
759 1 0.917301 0.408846 0.151173
760 1 0.804078 0.510512 0.15008
762 1 0.121933 0.686119 0.141648
781 1 0.0241796 0.776047 0.14075
763 1 0.103728 0.615237 0.151836
761 1 0.0173302 0.607683 0.142115
764 1 0.00707641 0.711676 0.151639
783 1 0.110151 0.792242 0.15143
767 1 0.2998 0.602674 0.151723
768 1 0.212564 0.690705 0.151661
772 1 0.390893 0.704268 0.148646
787 1 0.300681 0.786221 0.147662
885 1 0.22636 0.799326 0.157617
770 1 0.494217 0.696092 0.140427
791 1 0.501203 0.77919 0.150755
776 1 0.580897 0.685574 0.149383
774 1 0.72166 0.691072 0.140701
795 1 0.702539 0.797667 0.149638
797 1 0.806115 0.790125 0.140683
780 1 0.813197 0.690612 0.150761
779 1 0.900291 0.60901 0.150673
782 1 0.095586 0.891191 0.142275
703 1 0.053488 0.97761 0.151465
707 1 0.318193 0.988178 0.149028
788 1 0.210545 0.889897 0.148204
792 1 0.405291 0.901396 0.147119
711 1 0.487535 0.996625 0.148321
794 1 0.693311 0.893832 0.140715
796 1 0.601452 0.914281 0.1498
784 1 0.980169 0.871845 0.15196
800 1 0.809859 0.903878 0.14837
799 1 0.887832 0.803204 0.15099
823 1 0.0895193 0.199212 0.169407
804 1 0.00696394 0.116088 0.168219
808 1 0.175209 0.0872658 0.169539
805 1 0.191293 0.00419399 0.159158
827 1 0.297306 0.191531 0.166615
812 1 0.391806 0.123624 0.171852
807 1 0.283562 0.0297172 0.169053
810 1 0.472399 0.0913308 0.160165
816 1 0.561766 0.0777989 0.17026
833 1 0.585378 0.184914 0.160965
814 1 0.678359 0.102286 0.160516
817 1 0.788799 0.0147315 0.160021
818 1 0.901339 0.130967 0.161819
801 1 0.966599 0.0119389 0.159335
820 1 0.807036 0.125203 0.17126
819 1 0.887 0.0113906 0.169734
821 1 0.0128331 0.216919 0.158032
822 1 0.113532 0.310834 0.158577
828 1 0.192136 0.291036 0.168687
841 1 0.020169 0.397059 0.16024
826 1 0.302563 0.292168 0.159846
832 1 0.369621 0.310884 0.169948
829 1 0.400622 0.213391 0.160887
831 1 0.486232 0.201589 0.170152
830 1 0.493784 0.314268 0.161168
836 1 0.575491 0.296941 0.171412
853 1 0.61708 0.389969 0.161652
835 1 0.696486 0.208195 0.167081
837 1 0.791228 0.210397 0.159912
834 1 0.703447 0.30367 0.157935
855 1 0.730721 0.384905 0.167824
840 1 0.799658 0.281175 0.170244
839 1 0.911526 0.202374 0.17149
824 1 0.993269 0.294507 0.170372
838 1 0.887607 0.302658 0.159999
859 1 0.905378 0.395449 0.169092
843 1 0.117873 0.407418 0.16992
842 1 0.105036 0.507264 0.16139
849 1 0.39153 0.408565 0.160236
845 1 0.218059 0.400892 0.160815
847 1 0.287915 0.419107 0.170807
848 1 0.20189 0.505865 0.170211
846 1 0.309055 0.506122 0.160643
867 1 0.295268 0.594234 0.169961
851 1 0.505743 0.420514 0.170565
852 1 0.405789 0.52298 0.169513
850 1 0.491754 0.508771 0.161226
856 1 0.592119 0.515976 0.170268
854 1 0.695045 0.499528 0.16198
873 1 0.609778 0.596675 0.159188
857 1 0.822186 0.42709 0.159873
844 1 0.984062 0.499095 0.169022
860 1 0.80182 0.505545 0.168265
858 1 0.896299 0.52787 0.160254
861 1 0.997544 0.591856 0.158889
863 1 0.0652993 0.607276 0.169569
862 1 0.0966022 0.71964 0.161459
865 1 0.198418 0.611075 0.161884
868 1 0.180963 0.715626 0.169866
866 1 0.324772 0.693935 0.161078
872 1 0.391392 0.719216 0.171613
871 1 0.491213 0.618497 0.170264
869 1 0.400463 0.607176 0.159918
870 1 0.476643 0.708021 0.160713
876 1 0.583085 0.722976 0.17066
875 1 0.670775 0.622429 0.170756
874 1 0.721684 0.723102 0.160829
880 1 0.791763 0.702125 0.172018
877 1 0.779152 0.604966 0.16087
864 1 0.981451 0.716201 0.171844
879 1 0.913195 0.619331 0.171774
878 1 0.890606 0.69377 0.161766
881 1 0.987867 0.789498 0.161708
882 1 0.0890273 0.879307 0.160981
803 1 0.0816625 0.996541 0.16679
883 1 0.0886733 0.813244 0.172379
888 1 0.182203 0.91403 0.169897
887 1 0.273663 0.811366 0.171122
889 1 0.357939 0.821058 0.160612
886 1 0.290891 0.921171 0.159903
892 1 0.38032 0.901379 0.170112
811 1 0.469062 0.998647 0.170517
809 1 0.404607 0.9796 0.159786
890 1 0.479644 0.877521 0.1607
891 1 0.48323 0.824558 0.170802
813 1 0.588033 0.986152 0.160247
896 1 0.596118 0.913089 0.169619
894 1 0.712786 0.90393 0.159753
815 1 0.694346 0.999357 0.170801
895 1 0.681831 0.800644 0.170655
893 1 0.605887 0.828356 0.160039
900 1 0.792859 0.917071 0.171148
899 1 0.891652 0.82723 0.171458
884 1 0.978323 0.913447 0.168662
897 1 0.81047 0.809013 0.161992
898 1 0.877171 0.919493 0.160784
902 1 0.0963363 0.0980637 0.179487
904 1 0.0314494 0.120793 0.190083
901 1 0.0040027 0.0116682 0.178867
905 1 0.185597 0.00862935 0.18083
903 1 0.0955006 0.000753882 0.190832
908 1 0.211766 0.10588 0.190499
906 1 0.291676 0.128299 0.180876
912 1 0.383944 0.123709 0.191619