ITEM: TIMESTEP
5000
ITEM: NUMBER OF ATOMS
5000
ITEM: BOX BOUNDS pp pp pp
0.0000000000000000e+00 8.0180007035687204e+00
0.0000000000000000e+00 8.0180007035687204e+00
0.0000000000000000e+00 8.0180007035687197e+01
ITEM: ATOMS id type xs ys zs
23 1 0.104665 0.190187 0.0102649
2 1 0.108542 0.0973032 0.000518952
21 1 0.00517961 0.196932 0.000129637
8 1 0.205958 0.100514 0.0106099
7 1 0.314187 0.00177885 0.00977989
5 1 0.205184 0.000183934 0.00109491
12 1 0.401268 0.102228 0.0100767
31 1 0.49594 0.197425 0.00927488
16 1 0.590901 0.090593 0.00926708
10 1 0.488428 0.095527 0.000123824
20 1 0.797523 0.0944412 0.0102515
35 1 0.696068 0.199387 0.0104984
4 1 0.994826 0.0995814 0.00924774
39 1 0.903336 0.197999 0.00875094
28 1 0.194637 0.299437 0.0099743
24 1 0.00733556 0.285554 0.0110207
22 1 0.103374 0.295285 0.000418307
41 1 0.0013955 0.390094 0.000456772
25 1 0.209645 0.204252 0.000816799
27 1 0.302172 0.204164 0.0110335
47 1 0.294614 0.395792 0.0102191
45 1 0.207019 0.398696 0.000648373
32 1 0.401069 0.293164 0.0102789
36 1 0.58792 0.288496 0.0108377
51 1 0.496494 0.396652 0.010927
55 1 0.699865 0.385903 0.00984326
40 1 0.809312 0.295559 0.00976284
59 1 0.915592 0.391416 0.01045
38 1 0.915617 0.292955 0.000164927
43 1 0.107729 0.402012 0.0101835
48 1 0.197452 0.500932 0.0107302
44 1 0.0112482 0.498628 0.0101561
42 1 0.106497 0.487679 0.00060341
61 1 0.00952283 0.587966 0.000604202
46 1 0.309361 0.500647 0.000962618
52 1 0.39924 0.488862 0.0102811
65 1 0.200408 0.589565 0.00101547
67 1 0.295127 0.584442 0.0112477
50 1 0.496816 0.499962 0.000303094
56 1 0.58774 0.507664 0.0107162
71 1 0.491123 0.591934 0.00988659
53 1 0.604175 0.411612 0.000513039
73 1 0.600257 0.599584 0.00027349
60 1 0.801436 0.497482 0.0105674
79 1 0.895104 0.596147 0.00968635
58 1 0.904516 0.485169 0.00044096
63 1 0.101405 0.60127 0.0108957
68 1 0.199483 0.690908 0.0105574
83 1 0.0917211 0.79517 0.00920841
62 1 0.0908481 0.688269 0.00109359
72 1 0.398914 0.687322 0.0100521
87 1 0.299223 0.791745 0.00936218
89 1 0.397029 0.79369 0.000896189
76 1 0.597731 0.682388 0.01096
91 1 0.50294 0.787312 0.00981096
75 1 0.711985 0.600868 0.0103568
80 1 0.798614 0.708529 0.0097111
95 1 0.700071 0.796621 0.0105732
93 1 0.606537 0.783649 0.00063823
64 1 0.990135 0.692245 0.010353
78 1 0.892632 0.696991 0.000209762
3 1 0.0971689 0.992297 0.00981258
88 1 0.205226 0.902228 0.00943456
86 1 0.308058 0.896634 0.000103279
11 1 0.494356 0.998065 0.00944961
92 1 0.407909 0.882958 0.0103158
90 1 0.501634 0.880795 0.000126823
15 1 0.69402 0.999304 0.00912996
96 1 0.600801 0.886469 0.00997808
100 1 0.790279 0.89339 0.00966605
19 1 0.903876 0.994861 0.009394
99 1 0.898202 0.806424 0.00969195
84 1 0.997407 0.898874 0.00846604
17 1 0.812612 0.999556 0.000391374
102 1 0.106838 0.0897626 0.0199088
123 1 0.104899 0.192609 0.0292628
125 1 0.195115 0.192844 0.0199508
121 1 0.00761809 0.189296 0.0200705
108 1 0.203127 0.0897527 0.0292316
106 1 0.304905 0.102753 0.0194908
127 1 0.306771 0.196556 0.0311651
112 1 0.413554 0.0912573 0.0295592
110 1 0.512844 0.090194 0.0202969
131 1 0.50481 0.1926 0.0301912
133 1 0.609164 0.192618 0.0208807
116 1 0.609122 0.0877831 0.0307953
114 1 0.697314 0.0930515 0.019923
137 1 0.796207 0.186966 0.0192703
120 1 0.795337 0.0953999 0.0290699
135 1 0.705886 0.192976 0.0307387
104 1 0.997848 0.0907072 0.0300826
118 1 0.894488 0.0983806 0.0196226
101 1 0.995333 0.000723588 0.0194635
139 1 0.902891 0.181398 0.0301969
122 1 0.102479 0.295996 0.0197387
145 1 0.197461 0.383091 0.0207223
143 1 0.0965842 0.385391 0.0292699
141 1 0.00926189 0.392475 0.0203086
128 1 0.20751 0.295142 0.0313646
126 1 0.292091 0.287556 0.0210096
147 1 0.300211 0.387796 0.030982
149 1 0.389958 0.3933 0.0208313
129 1 0.401012 0.203077 0.0198299
132 1 0.402797 0.284768 0.0301621
130 1 0.503258 0.293479 0.0200282
153 1 0.591977 0.394774 0.0209366
136 1 0.599172 0.296637 0.0295629
134 1 0.705024 0.295644 0.0198324
140 1 0.798906 0.288971 0.0305082
155 1 0.707405 0.392311 0.0294044
124 1 0.998799 0.290311 0.0298655
138 1 0.901272 0.283858 0.020048
159 1 0.907579 0.398538 0.0300269
157 1 0.800668 0.391988 0.0194952
142 1 0.104748 0.49862 0.0203684
148 1 0.194729 0.497282 0.0300537
161 1 0.00187465 0.599722 0.0198557
146 1 0.290811 0.481856 0.020334
165 1 0.201695 0.597851 0.0209531
167 1 0.303622 0.596615 0.030069
152 1 0.401413 0.49977 0.0297549
151 1 0.498537 0.403617 0.0295647
150 1 0.49735 0.491683 0.0200632
156 1 0.593887 0.503203 0.0307715
169 1 0.403364 0.596308 0.0197895
171 1 0.498953 0.590163 0.0299955
154 1 0.69263 0.495157 0.0188682
160 1 0.789771 0.500528 0.0295992
173 1 0.604468 0.598755 0.0208849
175 1 0.69969 0.593929 0.0299856
177 1 0.798747 0.595467 0.0203284
144 1 0.996482 0.502553 0.0296206
158 1 0.90803 0.483264 0.0198608
179 1 0.894901 0.590079 0.0295135
163 1 0.0858578 0.603058 0.0298114
162 1 0.100425 0.696462 0.0202812
168 1 0.195006 0.702404 0.0310108
183 1 0.0996946 0.789595 0.0303769
166 1 0.293438 0.697997 0.0193783
172 1 0.399061 0.692357 0.0297316
185 1 0.200514 0.797011 0.0192733
187 1 0.30651 0.783395 0.0295375
170 1 0.504251 0.687109 0.0205741
189 1 0.40805 0.789042 0.0198483
191 1 0.498769 0.78167 0.0296011
176 1 0.602864 0.692754 0.0307072
174 1 0.710688 0.700289 0.0205818
180 1 0.799979 0.699833 0.0299223
193 1 0.608991 0.786246 0.0201785
195 1 0.702266 0.797506 0.0303381
164 1 0.992856 0.706772 0.0284496
178 1 0.887305 0.700206 0.0193876
199 1 0.893446 0.797747 0.030404
103 1 0.0973305 0.984142 0.0286833
182 1 0.0938522 0.887227 0.0193267
188 1 0.193352 0.892007 0.029616
105 1 0.209232 0.997361 0.0185746
107 1 0.307253 0.984394 0.0298565
186 1 0.303859 0.893294 0.0193708
111 1 0.499032 0.990828 0.0296853
113 1 0.599265 0.989294 0.0198504
109 1 0.40403 0.990836 0.0192692
192 1 0.407629 0.881739 0.0300506
190 1 0.503076 0.888473 0.019595
196 1 0.588624 0.890501 0.0303885
115 1 0.689979 0.98964 0.0298638
117 1 0.791433 0.991122 0.0186854
194 1 0.697647 0.898817 0.0202441
119 1 0.898813 0.991288 0.0308862
197 1 0.801471 0.802747 0.0197125
181 1 0.987968 0.808132 0.0198049
200 1 0.805329 0.899333 0.0308117
184 1 0.999273 0.890851 0.029012
198 1 0.892497 0.907725 0.0198185
202 1 0.105839 0.0850534 0.040255
204 1 0.000522193 0.0888917 0.0509195
223 1 0.102328 0.195084 0.050529
221 1 0.00589656 0.193072 0.0401791
225 1 0.194917 0.190798 0.0392922
208 1 0.203307 0.0916438 0.0486809
206 1 0.308597 0.0914853 0.0386325
227 1 0.302649 0.17969 0.0489012
212 1 0.414882 0.102971 0.0499474
210 1 0.506523 0.0927905 0.0395796
229 1 0.410431 0.185315 0.0399406
231 1 0.510779 0.196847 0.0500922
216 1 0.602915 0.0928499 0.0503678
214 1 0.698171 0.0822191 0.0397572
220 1 0.792729 0.0968403 0.049661
233 1 0.602422 0.190447 0.040024
235 1 0.703126 0.197575 0.0495745
218 1 0.898006 0.0995196 0.0400974
219 1 0.889858 0.00567403 0.0510341
239 1 0.901832 0.191051 0.0508513
222 1 0.101963 0.289938 0.0398857
245 1 0.19292 0.399499 0.0401423
224 1 0.00466972 0.29286 0.0505215
241 1 0.0088274 0.393335 0.0396928
228 1 0.202327 0.293424 0.0505369
226 1 0.307912 0.281562 0.0411156
232 1 0.405692 0.297846 0.0500256
230 1 0.5028 0.294496 0.0402069
236 1 0.584523 0.297099 0.0500185
249 1 0.403189 0.384655 0.0392733
251 1 0.48929 0.397335 0.0504455
234 1 0.70737 0.3002 0.0397169
257 1 0.794406 0.395494 0.0399569
240 1 0.786467 0.29898 0.0510275
253 1 0.60186 0.396388 0.0401185
237 1 0.80625 0.20738 0.0408365
238 1 0.915309 0.283709 0.0393867
259 1 0.907909 0.388432 0.0507193
243 1 0.102032 0.404839 0.0493063
242 1 0.095482 0.508485 0.0402218
248 1 0.193886 0.49738 0.0493904
263 1 0.0891261 0.593136 0.0508895
265 1 0.197367 0.597455 0.0389323
247 1 0.295803 0.404031 0.0497794
246 1 0.302324 0.493931 0.0408586
267 1 0.299731 0.598745 0.0513135
252 1 0.408743 0.501057 0.0498188
250 1 0.501917 0.492302 0.0404356
256 1 0.597066 0.491834 0.0500347
271 1 0.514925 0.591809 0.0506383
269 1 0.402426 0.591973 0.039679
273 1 0.593623 0.596727 0.0403917
255 1 0.697492 0.405059 0.0513661
254 1 0.701908 0.498089 0.0408852
277 1 0.796243 0.584508 0.0408744
244 1 0.990477 0.488636 0.0504361
260 1 0.805997 0.490422 0.0500609
258 1 0.901054 0.495165 0.0400308
279 1 0.900533 0.597691 0.0509691
262 1 0.0917562 0.702079 0.0413462
268 1 0.199414 0.7064 0.051159
283 1 0.098499 0.799583 0.0508206
266 1 0.304931 0.685627 0.040379
285 1 0.202442 0.797944 0.0409368
287 1 0.304668 0.789695 0.0504504
272 1 0.402238 0.684958 0.0498461
270 1 0.505296 0.693783 0.0405811
289 1 0.405795 0.785803 0.0405022
293 1 0.5935 0.791779 0.039523
291 1 0.494271 0.782852 0.0505061
275 1 0.694622 0.602311 0.0499601
276 1 0.614222 0.708163 0.0509836
274 1 0.700552 0.695876 0.0397949
280 1 0.796493 0.700121 0.0498233
261 1 0.998931 0.603865 0.0399962
264 1 0.996417 0.699501 0.0507376
278 1 0.904058 0.687668 0.0400626
297 1 0.800722 0.796293 0.039939
281 1 0.995249 0.794604 0.039184
299 1 0.905376 0.796654 0.0509256
203 1 0.102335 0.979912 0.0503873
282 1 0.0952578 0.892854 0.0405137
288 1 0.199286 0.897134 0.0508436
207 1 0.314728 0.993829 0.0504086
205 1 0.210888 0.986554 0.0397148
286 1 0.296946 0.888894 0.0392977
213 1 0.594954 0.97876 0.0405937
209 1 0.414967 0.990297 0.0398801
211 1 0.504312 0.999078 0.0504065
292 1 0.40314 0.893539 0.0501654
290 1 0.494379 0.884825 0.0393713
296 1 0.589145 0.887414 0.0499921
215 1 0.690806 0.988824 0.0496865
217 1 0.797967 0.996104 0.0399977
295 1 0.700231 0.806058 0.0494246
294 1 0.699666 0.897164 0.0396884
201 1 0.999793 0.993698 0.04079
284 1 0.992033 0.898282 0.0510345
300 1 0.802729 0.896706 0.0500165
298 1 0.900651 0.898573 0.0406077
302 1 0.102577 0.094941 0.0603807
325 1 0.193078 0.197511 0.0594531
323 1 0.101527 0.198413 0.0701004
308 1 0.195613 0.0948916 0.0696981
306 1 0.298572 0.109081 0.0592769
309 1 0.399054 0.00985763 0.0619982
310 1 0.504004 0.100309 0.0601087
329 1 0.40016 0.196353 0.0594489
314 1 0.700308 0.0961151 0.0601045
317 1 0.791269 0.00188399 0.0599239
333 1 0.605468 0.198885 0.0590103
337 1 0.794969 0.194199 0.0609032
335 1 0.692946 0.198948 0.0699816
321 1 0.995769 0.196843 0.0610904
301 1 0.990087 0.00279648 0.060078
318 1 0.903103 0.105 0.0604406
322 1 0.0915743 0.300737 0.0604015
345 1 0.19342 0.398841 0.060928
326 1 0.306671 0.292958 0.0605854
332 1 0.396347 0.292992 0.0698236
347 1 0.291097 0.389966 0.0695172
330 1 0.495961 0.300162 0.0606092
353 1 0.59495 0.39463 0.0607519
351 1 0.492646 0.39743 0.0694879
334 1 0.701523 0.2884 0.0613392
324 1 0.987085 0.301368 0.0696332
338 1 0.887878 0.295177 0.0604893
359 1 0.892526 0.392546 0.0699709
341 1 0.00185076 0.407947 0.0604604
342 1 0.0971594 0.491483 0.0608622
365 1 0.196738 0.586472 0.0610285
346 1 0.292229 0.499863 0.0596385
349 1 0.388099 0.405425 0.0601551
367 1 0.300495 0.58771 0.0701473
350 1 0.490879 0.494674 0.0609098
369 1 0.409846 0.592618 0.0606803
371 1 0.499804 0.585957 0.0699677
354 1 0.699111 0.504236 0.0607874
357 1 0.797424 0.403009 0.0606737
373 1 0.603542 0.597106 0.0604079
377 1 0.796168 0.598011 0.0603014
358 1 0.894787 0.500182 0.0601525
361 1 0.999931 0.594063 0.0596775
362 1 0.109483 0.689196 0.06111
364 1 0.00536823 0.703398 0.0693477
385 1 0.203756 0.795399 0.0609881
366 1 0.297081 0.703682 0.0608443
372 1 0.40153 0.690403 0.070119
370 1 0.499541 0.691226 0.0607578
376 1 0.592802 0.688674 0.0695772
375 1 0.696273 0.601663 0.0698878
374 1 0.701777 0.702481 0.0597363
378 1 0.89401 0.70262 0.0603629
379 1 0.906856 0.607726 0.0689599
303 1 0.0967113 0.996226 0.0699652
305 1 0.196434 0.99493 0.0608909
382 1 0.105355 0.889122 0.0610531
386 1 0.293226 0.894834 0.0598064
307 1 0.292448 0.99896 0.0696946
313 1 0.597292 0.990057 0.0605929
393 1 0.594024 0.801472 0.0607766
389 1 0.401041 0.805323 0.0609218
390 1 0.491787 0.898119 0.0615402
397 1 0.78951 0.804994 0.059493
394 1 0.691045 0.898031 0.0602565
400 1 0.789898 0.902322 0.0691593
319 1 0.889351 0.994393 0.0696225
381 1 0.994284 0.807476 0.0609321
398 1 0.89767 0.893223 0.0601107
304 1 0.00584418 0.0941744 0.0702584
402 1 0.0959317 0.0881785 0.0795673
421 1 0.0116903 0.198919 0.0798209
425 1 0.191303 0.194388 0.0799047
312 1 0.385297 0.103842 0.0701953
406 1 0.297621 0.0950966 0.0802692
327 1 0.289298 0.198634 0.0704577
429 1 0.396604 0.199432 0.0808467
405 1 0.201239 0.00113785 0.0800755
311 1 0.493515 0.00871979 0.0714498
331 1 0.506351 0.195227 0.0703343
410 1 0.490875 0.117982 0.0810762
413 1 0.594957 0.00316317 0.0796366
316 1 0.602818 0.0914264 0.0704782
320 1 0.792927 0.104442 0.0703825
414 1 0.689417 0.107767 0.0804505
437 1 0.795486 0.199088 0.0812929
339 1 0.900611 0.197256 0.0712768
418 1 0.881461 0.0919961 0.0800738
422 1 0.100309 0.300488 0.080475
328 1 0.192501 0.295257 0.0703843
426 1 0.289903 0.309965 0.0800641
449 1 0.397634 0.394008 0.0802698
433 1 0.599705 0.205186 0.0803585
430 1 0.494892 0.302071 0.0807145
336 1 0.587805 0.300588 0.0702994
453 1 0.595447 0.397986 0.0798131
340 1 0.799634 0.290712 0.0705527
434 1 0.700062 0.302538 0.079498
457 1 0.793148 0.393493 0.0803995
441 1 0.988389 0.38487 0.0798123
438 1 0.901582 0.293544 0.0797245
343 1 0.0957744 0.401561 0.0716161
363 1 0.0915937 0.598216 0.0705402
445 1 0.191741 0.40826 0.0807418
442 1 0.0878859 0.50607 0.0805795
465 1 0.19285 0.595844 0.080098
348 1 0.203298 0.495696 0.0710634
446 1 0.305395 0.504094 0.0817698
352 1 0.392335 0.491257 0.0710557
450 1 0.49682 0.493001 0.0818778
356 1 0.596271 0.501551 0.0703735
473 1 0.587817 0.587923 0.0809599
469 1 0.410441 0.593496 0.0802537
355 1 0.692599 0.403341 0.0704914
360 1 0.797932 0.502345 0.0702379
454 1 0.696811 0.50836 0.0805497
344 1 0.987182 0.503777 0.0706001
458 1 0.892743 0.493681 0.0805001
368 1 0.192302 0.69559 0.0705661
383 1 0.0967975 0.793921 0.0708828
462 1 0.0915904 0.690391 0.0801413
387 1 0.301829 0.785052 0.0712161
485 1 0.201713 0.79913 0.0805173
466 1 0.310022 0.675475 0.0806081
489 1 0.385093 0.780431 0.0809099
470 1 0.49616 0.696866 0.0794578
493 1 0.598063 0.784431 0.0799715
395 1 0.696934 0.797161 0.0703788
380 1 0.797246 0.713111 0.070315
474 1 0.692005 0.684222 0.0805653
497 1 0.797479 0.794276 0.0807179
477 1 0.802246 0.60249 0.0788207
461 1 0.994281 0.601521 0.0804271
478 1 0.906335 0.697727 0.0804157
482 1 0.0945082 0.899614 0.079107
388 1 0.206512 0.895879 0.0708693
392 1 0.38311 0.88627 0.070648
486 1 0.295138 0.891834 0.080825
409 1 0.383927 0.989091 0.0807053
391 1 0.494321 0.803439 0.0712228
396 1 0.584639 0.89668 0.0714885
490 1 0.488364 0.903198 0.080664
417 1 0.782119 0.999158 0.0810466
315 1 0.694398 0.991177 0.0705232
494 1 0.682808 0.885978 0.080822
399 1 0.897679 0.801774 0.0705159
384 1 0.992115 0.897623 0.0702534
401 1 0.985498 0.993854 0.0812813
481 1 0.992268 0.803711 0.0807379
498 1 0.899514 0.891319 0.0801601
502 1 0.0844165 0.101196 0.0994805
423 1 0.0945267 0.197241 0.0903999
408 1 0.191728 0.100333 0.0903612
506 1 0.289814 0.104048 0.0994612
412 1 0.392121 0.0843295 0.0903286
529 1 0.389631 0.193268 0.0997571
510 1 0.478529 0.0978557 0.0999294
416 1 0.591272 0.107119 0.0902523
513 1 0.599628 0.0049559 0.10081
514 1 0.689734 0.110157 0.10015
517 1 0.794713 0.00121809 0.100739
420 1 0.791346 0.0973768 0.0904099
415 1 0.692887 0.00554388 0.0903003
404 1 0.988628 0.0986775 0.0901011
518 1 0.890084 0.0974942 0.0988737
525 1 0.19 0.201424 0.100048
522 1 0.0925613 0.303827 0.101023
428 1 0.19223 0.300159 0.0905306
427 1 0.289764 0.204979 0.0897094
526 1 0.290028 0.297113 0.100808
432 1 0.389568 0.308196 0.0900561
549 1 0.394366 0.397284 0.101546
431 1 0.489261 0.215382 0.0910619
530 1 0.492549 0.291662 0.101873
533 1 0.590769 0.201889 0.100451
436 1 0.596261 0.300657 0.0896775
553 1 0.591878 0.399052 0.101459
451 1 0.500392 0.392563 0.0922995
537 1 0.790479 0.202384 0.100148
435 1 0.692116 0.206506 0.0907541
534 1 0.695689 0.29668 0.100832
440 1 0.78718 0.306 0.0897016
557 1 0.792543 0.394131 0.100563
521 1 0.98824 0.20121 0.100864
439 1 0.898012 0.209677 0.0904455
424 1 0.995207 0.302152 0.0904658
538 1 0.890518 0.303466 0.100336
459 1 0.885546 0.395204 0.0907309
443 1 0.0919745 0.401245 0.0907557
542 1 0.0973321 0.50931 0.0996839
448 1 0.193803 0.504539 0.0903061
565 1 0.200751 0.599783 0.101064
545 1 0.204482 0.403077 0.100493
447 1 0.287958 0.401057 0.0900938
546 1 0.293811 0.499981 0.101122
452 1 0.396294 0.493769 0.091205
467 1 0.286398 0.597442 0.0912712
569 1 0.390423 0.594021 0.100216
550 1 0.49935 0.50114 0.101258
471 1 0.490304 0.593622 0.0911663
456 1 0.594624 0.493052 0.0908544
455 1 0.693274 0.40207 0.0911415
554 1 0.697895 0.501753 0.101376
460 1 0.793782 0.485293 0.0891182
475 1 0.692834 0.59295 0.0915487
541 1 0.990573 0.403278 0.101349
444 1 0.984871 0.498768 0.0897692
558 1 0.902879 0.50608 0.100334
577 1 0.800813 0.592397 0.0999776
479 1 0.890452 0.58905 0.0900628
463 1 0.0996074 0.607515 0.0902247
562 1 0.103574 0.689596 0.100309
483 1 0.106461 0.794855 0.0899749
585 1 0.192498 0.797101 0.0998954
468 1 0.202801 0.692954 0.0894537
566 1 0.295477 0.696752 0.101165
472 1 0.38238 0.696806 0.0913012
589 1 0.393583 0.798021 0.100828
491 1 0.490787 0.792379 0.090244
570 1 0.491616 0.69598 0.100622
476 1 0.582529 0.691981 0.0910941
573 1 0.594372 0.602606 0.10096
593 1 0.585232 0.797265 0.0998877
574 1 0.700386 0.698182 0.0993769
480 1 0.795063 0.689193 0.0892404
495 1 0.687391 0.781738 0.0899244
561 1 0.994069 0.601557 0.100232
464 1 0.992848 0.695572 0.090533
578 1 0.893755 0.697832 0.0995861
505 1 0.184073 0.999603 0.0987052
403 1 0.0926752 0.98649 0.0889967
582 1 0.102691 0.897151 0.0990129
488 1 0.188307 0.896117 0.0894727
581 1 9.69453e-06 0.804247 0.0993662
407 1 0.28987 0.995902 0.0903301
509 1 0.389971 0.993852 0.100252
487 1 0.291511 0.802494 0.091445
586 1 0.286078 0.902018 0.0995651
492 1 0.388629 0.896597 0.0902804
411 1 0.494218 0.997711 0.0905584
590 1 0.497912 0.904767 0.10171
496 1 0.577242 0.892806 0.090353
597 1 0.778213 0.803025 0.0999253
594 1 0.67968 0.902423 0.100415
500 1 0.78463 0.896154 0.0898328
484 1 0.994814 0.895442 0.0903621
501 1 0.99421 0.999509 0.09891
419 1 0.887622 0.997385 0.0904991
499 1 0.889413 0.804193 0.0912342
598 1 0.892865 0.890396 0.1002
602 1 0.09402 0.100598 0.119618
508 1 0.193783 0.0916114 0.1097
504 1 0.00159136 0.108671 0.110048
503 1 0.0863675 0.00310899 0.108847
523 1 0.0955192 0.19882 0.109984
606 1 0.288054 0.10164 0.11982
507 1 0.285001 0.00150799 0.110146
512 1 0.384365 0.0967605 0.109783
527 1 0.286846 0.192746 0.109891
629 1 0.38714 0.193488 0.119741
610 1 0.492715 0.0990458 0.120426
613 1 0.593657 0.00483443 0.11886
516 1 0.590311 0.109018 0.109362
633 1 0.591283 0.192726 0.119834
531 1 0.4899 0.190867 0.110223
511 1 0.489416 0.00642349 0.110462
614 1 0.681212 0.099632 0.119145
520 1 0.790315 0.102122 0.110165
515 1 0.695513 0.00191115 0.11018
618 1 0.897636 0.107042 0.120206
519 1 0.902758 0.0012373 0.109534
625 1 0.195426 0.201859 0.119491
622 1 0.0995319 0.304449 0.120001
528 1 0.187382 0.309108 0.110228
626 1 0.288293 0.299579 0.11966
532 1 0.383644 0.298715 0.110012
649 1 0.39095 0.395523 0.120412
630 1 0.481555 0.28773 0.120126
536 1 0.589346 0.298891 0.111444
551 1 0.492578 0.398634 0.111049
637 1 0.785254 0.20127 0.119656
535 1 0.691388 0.204578 0.110327
634 1 0.686423 0.295712 0.120335
540 1 0.794319 0.309171 0.110549
621 1 0.985313 0.202866 0.120491
524 1 0.989449 0.29446 0.109976
641 1 0.979931 0.393082 0.119081
539 1 0.897616 0.207908 0.110723
638 1 0.886721 0.293936 0.12022
645 1 0.191949 0.408103 0.120587
543 1 0.0870645 0.40814 0.111028
642 1 0.0904776 0.497991 0.120671
661 1 0.000635888 0.593925 0.121302
548 1 0.189243 0.50763 0.110821
547 1 0.286813 0.403807 0.111154
646 1 0.302112 0.503634 0.120464
552 1 0.391911 0.500772 0.110491
567 1 0.294398 0.596135 0.111753
571 1 0.488891 0.597118 0.111124
650 1 0.495333 0.496812 0.120715
556 1 0.592199 0.512143 0.110897
555 1 0.684156 0.404032 0.110281
653 1 0.601087 0.409216 0.119652
654 1 0.69241 0.506887 0.120493
657 1 0.786024 0.405777 0.11948
560 1 0.795548 0.50529 0.109988
575 1 0.691542 0.598771 0.110509
544 1 0.994713 0.510615 0.110414
559 1 0.889639 0.402932 0.110064
658 1 0.887853 0.493455 0.121115
563 1 0.10361 0.609045 0.110978
665 1 0.199205 0.601264 0.120677
662 1 0.0997836 0.704858 0.119742
568 1 0.195476 0.706454 0.11059
583 1 0.10513 0.798517 0.109123
564 1 0.0036714 0.707233 0.10855
669 1 0.391485 0.602646 0.120964
666 1 0.285517 0.711889 0.119922
572 1 0.390539 0.692545 0.11031
673 1 0.588737 0.612527 0.120024
670 1 0.490482 0.706336 0.120508
591 1 0.486361 0.799205 0.110658
576 1 0.586035 0.704167 0.110187
693 1 0.590381 0.79761 0.120036
674 1 0.697977 0.692968 0.120273
677 1 0.795897 0.604375 0.120739
697 1 0.795712 0.794226 0.119651
580 1 0.793248 0.694641 0.109309
595 1 0.688364 0.792749 0.110424
579 1 0.901863 0.60355 0.110702
599 1 0.902434 0.792563 0.110013
678 1 0.902891 0.699306 0.120984
605 1 0.184997 0.993944 0.119575
685 1 0.198818 0.813357 0.121879
682 1 0.0871597 0.882361 0.120012
588 1 0.180028 0.90732 0.109782
609 1 0.390182 0.995137 0.120175
587 1 0.283739 0.81392 0.110781
686 1 0.291501 0.91071 0.120654
689 1 0.386344 0.807032 0.120063
592 1 0.386753 0.90266 0.110124
690 1 0.481782 0.902985 0.119468
596 1 0.596463 0.89193 0.110279
617 1 0.794447 0.989816 0.119236
694 1 0.699289 0.891842 0.119077
600 1 0.787414 0.900104 0.109334
681 1 0.993947 0.800014 0.120041
601 1 0.998547 0.99875 0.11991
584 1 0.994584 0.90048 0.109452
698 1 0.898991 0.903329 0.120466
702 1 0.0937683 0.110163 0.139028
608 1 0.191482 0.104694 0.129358
705 1 0.183732 0.00432354 0.138801
623 1 0.098353 0.194178 0.128741
603 1 0.0761462 0.00153115 0.129996
725 1 0.196091 0.197308 0.13928
612 1 0.390038 0.100346 0.129443
729 1 0.393513 0.199523 0.139831
627 1 0.290355 0.198976 0.129528
607 1 0.282952 0.011577 0.12998
611 1 0.490998 0.0027451 0.129346
616 1 0.588833 0.100106 0.129524
713 1 0.580803 0.00110505 0.139441
710 1 0.492089 0.0947522 0.13981
615 1 0.697038 0.00675608 0.129063
620 1 0.789072 0.103553 0.129798
733 1 0.605273 0.187214 0.140067
604 1 0.997954 0.107489 0.129304
718 1 0.890802 0.101877 0.138978
619 1 0.895479 0.00803362 0.129719
721 1 0.990563 0.194843 0.139475
717 1 0.800051 0.000928822 0.139445
624 1 0.00234588 0.308751 0.13147
628 1 0.194255 0.302157 0.129432
643 1 0.095732 0.399076 0.130321
722 1 0.104674 0.294737 0.139659
632 1 0.381082 0.297256 0.129359
726 1 0.297481 0.297443 0.139867
745 1 0.200216 0.398841 0.138801
749 1 0.39782 0.396634 0.138763
631 1 0.490376 0.202859 0.129838
636 1 0.591374 0.298742 0.129054
651 1 0.493557 0.386742 0.129855
753 1 0.585442 0.398332 0.139929
730 1 0.495653 0.297645 0.139543
635 1 0.691733 0.202465 0.130594
734 1 0.697438 0.29924 0.139881
640 1 0.79781 0.307798 0.131049
639 1 0.888703 0.212957 0.129813
659 1 0.886471 0.395029 0.130375
648 1 0.191695 0.503342 0.12971
742 1 0.0955371 0.502808 0.139157
647 1 0.297534 0.404418 0.129835
652 1 0.395871 0.49553 0.129594
746 1 0.294854 0.502349 0.139505
667 1 0.296787 0.598775 0.129821
656 1 0.592195 0.495523 0.130034
750 1 0.484692 0.493382 0.140106
655 1 0.695022 0.403837 0.130375
660 1 0.793377 0.494829 0.130304
754 1 0.689615 0.497068 0.140101
644 1 0.994308 0.492505 0.129978
758 1 0.895297 0.493112 0.140216
679 1 0.903046 0.593357 0.130342
663 1 0.102515 0.606136 0.130003
668 1 0.197067 0.704172 0.131366
683 1 0.0946266 0.796556 0.130522
672 1 0.387077 0.697926 0.130101
765 1 0.206133 0.602155 0.140237
671 1 0.485342 0.605383 0.129917
770 1 0.503225 0.696115 0.139887
691 1 0.489354 0.793063 0.129997
773 1 0.591254 0.60739 0.139005
676 1 0.600121 0.704984 0.129365
675 1 0.69446 0.600783 0.130862
797 1 0.789292 0.794428 0.139798
777 1 0.785304 0.606188 0.139877
695 1 0.700697 0.796841 0.129293
664 1 0.996668 0.711812 0.130785
680 1 0.802387 0.703198 0.130374
778 1 0.89839 0.710672 0.139624
782 1 0.0945522 0.908104 0.139508
688 1 0.181264 0.91029 0.130671
785 1 0.195523 0.80407 0.140315
709 1 0.38337 0.999193 0.139088
687 1 0.291564 0.805531 0.130419
789 1 0.388015 0.80589 0.139652
692 1 0.39296 0.900181 0.129607
786 1 0.288357 0.903709 0.140242
790 1 0.482273 0.916436 0.140001
793 1 0.587228 0.803646 0.139737
696 1 0.587436 0.901493 0.128975
794 1 0.686996 0.90112 0.140109
700 1 0.785172 0.894015 0.130113
699 1 0.894647 0.808393 0.129713
701 1 0.988601 0.999901 0.139594
781 1 0.999676 0.813362 0.14005
684 1 0.986692 0.898714 0.13071
798 1 0.889221 0.903535 0.13981
708 1 0.181518 0.100584 0.149609
703 1 0.0812499 0.00780071 0.149006
706 1 0.286251 0.0998643 0.140832
707 1 0.28515 0.00380942 0.149615
727 1 0.291482 0.197484 0.14947
712 1 0.389391 0.106273 0.15053
716 1 0.59287 0.0948696 0.149864
711 1 0.48697 0.00659596 0.149674
737 1 0.792495 0.197367 0.140396
714 1 0.697353 0.0932378 0.140473
720 1 0.790261 0.106293 0.149815
704 1 0.997394 0.106022 0.14942
719 1 0.889215 0.0121504 0.149517
741 1 0.000533262 0.397329 0.141002
723 1 0.10052 0.204928 0.1498
728 1 0.201738 0.302528 0.15043
747 1 0.289757 0.395158 0.149102
732 1 0.390424 0.282396 0.150123
731 1 0.498955 0.203725 0.149549
751 1 0.47961 0.394198 0.150301
736 1 0.595599 0.301555 0.148926
757 1 0.785364 0.395517 0.140691
735 1 0.696765 0.204723 0.150064
740 1 0.789576 0.305141 0.150187
755 1 0.682572 0.398 0.149524
738 1 0.900235 0.299889 0.140978
739 1 0.894852 0.202496 0.150063
724 1 0.994896 0.301124 0.149932
743 1 0.109334 0.404209 0.148719
748 1 0.195564 0.496512 0.148081
769 1 0.388508 0.599237 0.140483
752 1 0.390283 0.489273 0.149703
767 1 0.296225 0.594328 0.150811
756 1 0.592611 0.497125 0.14892
760 1 0.791832 0.50691 0.148933
775 1 0.683535 0.598072 0.149793
744 1 0.996612 0.509529 0.148967
759 1 0.893624 0.403332 0.150118
779 1 0.892741 0.59817 0.14942
762 1 0.098118 0.704036 0.140704
763 1 0.0949544 0.611207 0.15106
768 1 0.193809 0.695885 0.151343
766 1 0.302929 0.693833 0.140444
772 1 0.399969 0.709655 0.149844
787 1 0.283299 0.794956 0.151105
771 1 0.491482 0.602821 0.149525
776 1 0.597369 0.71181 0.150888
774 1 0.679157 0.699065 0.140938
780 1 0.791773 0.696001 0.149794
761 1 0.9937 0.607206 0.140398
764 1 0.985691 0.702381 0.149436
799 1 0.891737 0.797455 0.150882
783 1 0.0928182 0.803095 0.14995
788 1 0.186251 0.917295 0.150386
792 1 0.388621 0.899029 0.149557
791 1 0.484129 0.810239 0.149121
796 1 0.585789 0.898858 0.149711
715 1 0.69229 0.992247 0.149125
795 1 0.696979 0.805016 0.149718
800 1 0.795768 0.902525 0.148797
784 1 0.998426 0.909011 0.150419
802 1 0.0902691 0.102739 0.159095
808 1 0.190787 0.107125 0.170709
805 1 0.192359 0.0101473 0.159251
823 1 0.0936431 0.199538 0.168646
803 1 0.0993677 0.00619634 0.169231
806 1 0.293732 0.0996013 0.159952
807 1 0.290092 0.00154729 0.169106
812 1 0.397242 0.0996754 0.169991
829 1 0.387169 0.193922 0.160596
809 1 0.397528 0.0084877 0.159851
810 1 0.494684 0.104018 0.159146
811 1 0.493733 0.00741893 0.169149
833 1 0.597763 0.191722 0.158817
816 1 0.591483 0.102372 0.169743
814 1 0.695269 0.0968816 0.159024
815 1 0.687069 0.00366968 0.169379
820 1 0.787998 0.1055 0.168896
804 1 0.992001 0.106026 0.16898
818 1 0.895219 0.105878 0.159026
821 1 0.999088 0.199898 0.158908
801 1 0.986654 0.011212 0.159417
819 1 0.88581 0.0160725 0.168924
822 1 0.0900237 0.305874 0.159493
843 1 0.0903188 0.396618 0.169933
825 1 0.194606 0.200585 0.15885
828 1 0.190319 0.294432 0.16933
845 1 0.196925 0.398095 0.160694
827 1 0.285682 0.205163 0.169357
826 1 0.288057 0.300036 0.16037
832 1 0.392409 0.309354 0.170188
847 1 0.294477 0.395148 0.17081
849 1 0.387857 0.391028 0.159315
831 1 0.489719 0.202191 0.169525
830 1 0.499751 0.300666 0.15996
836 1 0.591683 0.303435 0.169157
835 1 0.685056 0.200567 0.169237
834 1 0.693425 0.302581 0.159913
840 1 0.785671 0.303846 0.169442
855 1 0.701994 0.398694 0.169747
837 1 0.801695 0.215816 0.16034
824 1 0.99386 0.303117 0.169422
839 1 0.890208 0.20273 0.169966
838 1 0.902798 0.305523 0.159486
842 1 0.103552 0.494811 0.158372
848 1 0.195864 0.494471 0.169906
863 1 0.0900541 0.599016 0.170202
846 1 0.286964 0.498209 0.159969
852 1 0.391971 0.506809 0.170101
869 1 0.382941 0.591973 0.160461
851 1 0.484507 0.406989 0.169576
850 1 0.489883 0.499705 0.159401
853 1 0.579749 0.411934 0.15973
871 1 0.49651 0.598746 0.169382
856 1 0.603843 0.508794 0.169365
854 1 0.693215 0.51197 0.16049
857 1 0.780826 0.40339 0.158307
860 1 0.796866 0.506675 0.169914
877 1 0.798235 0.596543 0.159861
841 1 0.998498 0.414967 0.159714
844 1 0.983159 0.508772 0.169617
859 1 0.892974 0.4094 0.168156
858 1 0.890856 0.498092 0.158897
862 1 0.0907706 0.709877 0.160436
865 1 0.193643 0.601644 0.160555
868 1 0.195339 0.70411 0.169258
867 1 0.283913 0.60421 0.170573
866 1 0.299289 0.693352 0.160511
872 1 0.395883 0.698733 0.170129
870 1 0.492481 0.705111 0.159411
876 1 0.589119 0.706809 0.167982
873 1 0.586372 0.605208 0.158996
875 1 0.697491 0.608386 0.169929
874 1 0.698975 0.69812 0.160024
880 1 0.792275 0.712334 0.169947
861 1 0.979195 0.603176 0.159337
864 1 0.991865 0.713049 0.170205
879 1 0.880786 0.608532 0.169413
878 1 0.890241 0.701526 0.15965
883 1 0.0884035 0.813364 0.168916
885 1 0.185772 0.805199 0.159838
882 1 0.0932015 0.903205 0.159326
888 1 0.195842 0.90163 0.169585
887 1 0.291482 0.801208 0.169932
886 1 0.2858 0.906957 0.159697
889 1 0.397666 0.806053 0.159328
892 1 0.388568 0.905791 0.168978
813 1 0.596151 0.994728 0.159929
891 1 0.480799 0.803326 0.168909
890 1 0.491107 0.915092 0.159708
893 1 0.580936 0.820498 0.160305
896 1 0.596512 0.912392 0.17035
817 1 0.785348 0.997715 0.159516
895 1 0.682762 0.807072 0.16995
894 1 0.687388 0.908522 0.159704
897 1 0.786367 0.813831 0.159347
900 1 0.786123 0.892204 0.169722
884 1 0.980277 0.910377 0.169014
881 1 0.984063 0.800232 0.160271
899 1 0.896004 0.80624 0.169255
898 1 0.883527 0.908276 0.158358
902 1 0.0916739 0.11558 0.179437
904 1 0.0009172 0.1109 0.189784
903 1 0.0987901 0.0112003 0.188836
905 1 0.192198 0.0128353 0.17948
908 1 0.20401 0.108867 0.190723
906 1 0.294532 0.104094 0.178867
907 1 0.296364 0.00606896 0.18964
929 1 0.382803 0.197678 0.178292
912 1 0.394302 0.10054 0.188478
910 1 0.50128 0.0953432 0.180213
916 1 0.594234 0.103098 0.190213
913 1 0.586633 0.00368783 0.180684
933 1 0.599354 0.199816 0.179783
914 1 0.692296 0.101852 0.179565
920 1 0.797328 0.103087 0.190638