ITEM: TIMESTEP
35000
ITEM: NUMBER OF ATOMS
5000
ITEM: BOX BOUNDS pp pp pp
0.0000000000000000e+00 8.0180007035687204e+00
0.0000000000000000e+00 8.0180007035687204e+00
0.0000000000000000e+00 8.0180007035687197e+01
ITEM: ATOMS id type xs ys zs
4 1 0.00208368 0.0813248 0.00950758
8 1 0.185706 0.0760122 0.0086691
25 1 0.173675 0.197533 0.000519266
6 1 0.289631 0.0948074 0.00148359
12 1 0.389821 0.0859867 0.0104148
10 1 0.517036 0.0878535 0.0011064
33 1 0.598554 0.18333 0.00214395
31 1 0.486104 0.19653 0.0100508
16 1 0.600667 0.100807 0.0117942
14 1 0.719594 0.0731939 0.00440827
13 1 0.62113 0.00611024 0.00105291
20 1 0.843235 0.0776502 0.00998844
37 1 0.807623 0.178195 0.000408303
23 1 0.0868502 0.203557 0.0109425
22 1 0.0948457 0.298907 0.00062493
28 1 0.187091 0.296424 0.00893845
45 1 0.184405 0.381577 1.4369e-05
43 1 0.10799 0.399201 0.0111443
27 1 0.282977 0.203305 0.0104973
32 1 0.383268 0.289882 0.00977788
47 1 0.29828 0.398089 0.0109139
26 1 0.287425 0.284045 0.000518501
30 1 0.495903 0.295248 0.00134105
35 1 0.713748 0.20134 0.0102917
36 1 0.608847 0.311981 0.0109755
55 1 0.716852 0.395688 0.00877096
24 1 0.987619 0.309553 0.00960557
40 1 0.808363 0.304051 0.00884557
39 1 0.904091 0.205238 0.00960617
44 1 0.0142266 0.484595 0.00910496
48 1 0.191664 0.49779 0.00869203
46 1 0.315948 0.493871 4.36941e-06
52 1 0.396326 0.493747 0.0095732
67 1 0.300413 0.577704 0.0119122
51 1 0.489489 0.40072 0.0115458
71 1 0.529368 0.57646 0.00768832
69 1 0.404844 0.599638 0.000854412
53 1 0.61248 0.415932 0.00135926
56 1 0.631116 0.488921 0.0111753
73 1 0.624412 0.564315 0.000807087
75 1 0.725838 0.59392 0.0110339
60 1 0.803936 0.491809 0.00857714
59 1 0.903756 0.406644 0.0114319
79 1 0.896814 0.572383 0.00930172
61 1 0.986687 0.588723 0.00137611
63 1 0.123468 0.606641 0.00964763
64 1 0.0156914 0.68614 0.0108067
83 1 0.104027 0.794401 0.0111304
62 1 0.0905738 0.695179 3.43161e-05
85 1 0.196559 0.772023 0.00294627
68 1 0.204677 0.694612 0.012303
87 1 0.330584 0.79706 0.0118352
65 1 0.219765 0.607445 0.000306005
66 1 0.301472 0.696727 0.00220053
72 1 0.407157 0.678752 0.0106347
70 1 0.520284 0.688491 0.00198043
89 1 0.421989 0.771166 0.00219495
76 1 0.602537 0.696991 0.012842
95 1 0.69264 0.788624 0.0121603
80 1 0.792507 0.709153 0.0110202
74 1 0.705347 0.711961 0.00131076
93 1 0.60842 0.798493 0.00216808
99 1 0.902587 0.779994 0.00980029
78 1 0.912058 0.694144 0.000778411
3 1 0.10746 0.986615 0.0107494
5 1 0.194263 0.956682 0.000597649
84 1 0.0106135 0.885027 0.0122181
1 1 0.00651126 0.965917 0.000815415
82 1 0.0992422 0.881319 0.00126852
7 1 0.295629 0.996384 0.0106319
88 1 0.215455 0.884658 0.0100496
86 1 0.332433 0.858491 0.000944708
9 1 0.391135 0.988011 0.000352018
11 1 0.488262 0.980282 0.00887735
92 1 0.411358 0.896618 0.0126438
91 1 0.504963 0.806778 0.0123117
90 1 0.482667 0.881485 0.000835393
96 1 0.599288 0.893964 0.012094
15 1 0.692778 0.97551 0.0119441
100 1 0.790828 0.880608 0.012719
94 1 0.707815 0.878813 0.00273123
19 1 0.898037 0.967019 0.010235
17 1 0.809869 0.977336 0.00144232
81 1 0.999463 0.801388 0.00137082
98 1 0.894348 0.877808 0.000370948
102 1 0.0939517 0.113402 0.0192732
108 1 0.175849 0.103362 0.0293832
106 1 0.298433 0.111287 0.0214087
112 1 0.398341 0.115663 0.0304254
110 1 0.490269 0.101824 0.0192843
111 1 0.498512 0.0159362 0.0300975
109 1 0.400798 0.0130637 0.0216745
116 1 0.599174 0.10979 0.0293943
114 1 0.697928 0.0816237 0.0209158
120 1 0.786962 0.109117 0.0298048
135 1 0.69838 0.193536 0.0282256
104 1 0.994766 0.0909192 0.0316233
118 1 0.906822 0.0883252 0.022333
121 1 0.988131 0.182538 0.0212236
137 1 0.826549 0.19978 0.0200887
139 1 0.899404 0.181089 0.0301214
123 1 0.0870248 0.214142 0.0312077
122 1 0.0898502 0.294884 0.0201219
124 1 0.000355382 0.31397 0.0308567
141 1 0.00721715 0.396256 0.0199962
143 1 0.0968145 0.3921 0.0313597
125 1 0.183571 0.209091 0.019435
128 1 0.184584 0.297013 0.0293716
129 1 0.389356 0.204687 0.0196393
149 1 0.386025 0.394011 0.0201087
127 1 0.287218 0.202257 0.0297719
126 1 0.271962 0.308134 0.0197665
147 1 0.290321 0.394336 0.0301615
132 1 0.404574 0.30528 0.0300472
131 1 0.486429 0.211679 0.029268
130 1 0.48258 0.294799 0.0182517
133 1 0.594804 0.205315 0.0189557
136 1 0.600374 0.309932 0.0304435
153 1 0.608551 0.393629 0.0210713
134 1 0.713498 0.285286 0.0188976
157 1 0.79492 0.396936 0.0191344
155 1 0.707013 0.373475 0.0289578
140 1 0.824755 0.292796 0.0304571
138 1 0.899601 0.307176 0.0196332
142 1 0.0940337 0.510205 0.0190292
148 1 0.184628 0.495265 0.0320572
165 1 0.193843 0.592442 0.020726
145 1 0.200929 0.414747 0.0212323
146 1 0.29145 0.498584 0.0214724
152 1 0.391023 0.495695 0.0279376
167 1 0.295453 0.582749 0.0303244
151 1 0.487697 0.40067 0.0285816
150 1 0.508983 0.506181 0.0207236
156 1 0.59349 0.504309 0.0318214
171 1 0.50478 0.59909 0.0299839
169 1 0.40178 0.593513 0.0203832
154 1 0.711625 0.491904 0.0206697
160 1 0.793284 0.474737 0.0307815
173 1 0.607696 0.569244 0.021539
175 1 0.694795 0.583498 0.031176
159 1 0.902214 0.410297 0.0323822
144 1 0.990147 0.49165 0.0277663
158 1 0.883883 0.494944 0.0210554
163 1 0.0797126 0.60612 0.0296467
162 1 0.0989623 0.711107 0.0205917
183 1 0.110356 0.784273 0.0306354
168 1 0.218916 0.692922 0.030407
166 1 0.316111 0.68213 0.0232691
185 1 0.212197 0.790675 0.0207231
172 1 0.421005 0.699795 0.0319479
170 1 0.494804 0.687317 0.0207296
189 1 0.407168 0.794076 0.0220399
174 1 0.700715 0.696188 0.022318
197 1 0.792999 0.78877 0.0229869
176 1 0.612429 0.67838 0.0312343
180 1 0.78508 0.686014 0.0324011
195 1 0.699203 0.796828 0.0345696
161 1 0.984956 0.601613 0.0200038
177 1 0.807818 0.604487 0.0209756
164 1 0.995206 0.700164 0.031738
179 1 0.887915 0.612865 0.0315396
178 1 0.897733 0.702965 0.020885
181 1 0.993215 0.790372 0.0210177
199 1 0.888888 0.796171 0.0306985
103 1 0.0805433 0.974966 0.028319
182 1 0.0997632 0.88124 0.0199344
184 1 0.0128677 0.877038 0.0299483
105 1 0.198646 0.998875 0.0226074
187 1 0.302063 0.803848 0.0299678
107 1 0.289806 0.991208 0.0317567
186 1 0.313748 0.915134 0.0200343
192 1 0.394453 0.896088 0.030088
188 1 0.203887 0.893347 0.0308346
190 1 0.509758 0.903251 0.0214144
191 1 0.507558 0.802985 0.0315501
113 1 0.604679 0.997603 0.0215879
115 1 0.706404 0.985573 0.0305714
193 1 0.603038 0.808638 0.0232647
194 1 0.700909 0.894561 0.0220996
196 1 0.610529 0.901481 0.0333474
200 1 0.786342 0.892262 0.031451
101 1 0.987973 0.984787 0.0204188
198 1 0.90224 0.894776 0.0223839
117 1 0.808824 0.97941 0.0200576
119 1 0.899651 0.985439 0.0313504
202 1 0.0846595 0.108642 0.0415698
204 1 0.00146461 0.100874 0.0505042
208 1 0.191343 0.0926788 0.0487111
206 1 0.283168 0.104786 0.0379262
212 1 0.373833 0.0809978 0.0466052
210 1 0.496286 0.121464 0.0396026
211 1 0.514334 0.0161587 0.0494134
213 1 0.597883 0.00879514 0.0384642
216 1 0.603431 0.134175 0.0512496
214 1 0.676769 0.112963 0.0389515
217 1 0.79545 0.0282015 0.0401355
220 1 0.798762 0.0999064 0.0508423
215 1 0.705679 0.024418 0.0513521
218 1 0.899606 0.0976083 0.0406641
237 1 0.800105 0.171869 0.0410716
219 1 0.904395 0.00245208 0.0513644
225 1 0.195622 0.209952 0.0397504
223 1 0.103618 0.202687 0.0497772
222 1 0.108854 0.302851 0.0400375
224 1 0.00617387 0.306462 0.0504077
241 1 0.0105409 0.392247 0.0407562
228 1 0.206904 0.304056 0.0499745
227 1 0.311556 0.202319 0.0492666
226 1 0.307448 0.28387 0.0400106
232 1 0.399134 0.319886 0.0485906
229 1 0.407244 0.202285 0.0403587
231 1 0.49899 0.237492 0.0509794
233 1 0.582148 0.208931 0.0401931
230 1 0.49501 0.320741 0.0396727
235 1 0.699694 0.203317 0.0494516
234 1 0.683685 0.288092 0.0402175
257 1 0.771604 0.382137 0.0406311
239 1 0.881032 0.200162 0.0503908
240 1 0.805658 0.320829 0.0508869
221 1 0.983631 0.201519 0.0429619
238 1 0.906686 0.298068 0.0419641
243 1 0.0982621 0.413752 0.0522277
245 1 0.178687 0.406418 0.0426153
242 1 0.0851949 0.514069 0.0419263
248 1 0.211727 0.516109 0.0515721
247 1 0.276292 0.40548 0.0514329
246 1 0.278034 0.498403 0.0396428
249 1 0.388852 0.406993 0.0403404
252 1 0.381564 0.492093 0.0504552
267 1 0.305182 0.59516 0.0506883
251 1 0.480202 0.401837 0.0503581
250 1 0.480741 0.50435 0.0419136
256 1 0.584535 0.508268 0.0505258
269 1 0.40532 0.594569 0.0400962
273 1 0.591907 0.591863 0.0410089
255 1 0.695613 0.403351 0.0498383
253 1 0.600647 0.400899 0.039492
254 1 0.686988 0.495538 0.0406901
275 1 0.679375 0.595167 0.0512426
260 1 0.797101 0.477689 0.0487662
277 1 0.784068 0.591953 0.0421217
244 1 0.996191 0.485153 0.0500268
259 1 0.898706 0.406369 0.0480279
258 1 0.905611 0.514589 0.0396265
279 1 0.89851 0.59886 0.0503958
265 1 0.199605 0.607334 0.0396899
263 1 0.110314 0.605098 0.0521108
262 1 0.101001 0.69378 0.0417721
283 1 0.113492 0.794384 0.0498578
264 1 0.0170413 0.704749 0.0516058
281 1 0.0164563 0.794684 0.0400213
268 1 0.21055 0.688365 0.0507332
266 1 0.318799 0.684881 0.0405837
285 1 0.206891 0.77199 0.0415068
271 1 0.475341 0.608334 0.0506286
272 1 0.402499 0.713844 0.0508426
270 1 0.505971 0.691245 0.0416922
291 1 0.49739 0.793908 0.0518121
274 1 0.680342 0.701133 0.0431417
261 1 0.998159 0.611414 0.0415171
280 1 0.816487 0.694886 0.0493948
278 1 0.927575 0.711034 0.0427477
205 1 0.170054 0.988219 0.0394089
203 1 0.100637 0.994171 0.0501612
282 1 0.0952755 0.890248 0.0388541
288 1 0.184656 0.907018 0.0492542
284 1 0.020753 0.894787 0.0509322
207 1 0.283458 0.999236 0.0501256
287 1 0.277387 0.813687 0.0502962
286 1 0.29447 0.904708 0.0404621
292 1 0.397568 0.89574 0.0504539
209 1 0.423298 0.984017 0.0399545
289 1 0.409495 0.80094 0.0408346
290 1 0.507122 0.888041 0.0411876
293 1 0.592093 0.802225 0.0419139
296 1 0.60952 0.911736 0.0492153
295 1 0.706221 0.813932 0.0497977
294 1 0.710846 0.924706 0.0426654
297 1 0.806834 0.800915 0.0412182
201 1 0.983775 0.987491 0.0414496
300 1 0.803483 0.899348 0.051592
298 1 0.901821 0.898352 0.0410358
299 1 0.897298 0.813357 0.0510421
302 1 0.108978 0.0909137 0.0586116
304 1 0.00951659 0.100739 0.0685199
305 1 0.195652 0.0048075 0.0595865
323 1 0.124777 0.188064 0.0684429
306 1 0.294265 0.103298 0.0585863
327 1 0.32252 0.192116 0.0693263
310 1 0.506058 0.109683 0.0584314
312 1 0.418741 0.0939562 0.0683629
316 1 0.569485 0.0877011 0.0698317
329 1 0.40702 0.192247 0.0576258
314 1 0.698847 0.0907999 0.0637838
333 1 0.620494 0.195633 0.0625093
313 1 0.610098 0.0159228 0.0596068
318 1 0.905646 0.110302 0.0595859
317 1 0.800833 0.00669819 0.0593706
320 1 0.804545 0.0866492 0.0694666
339 1 0.881141 0.193809 0.0692294
319 1 0.898076 0.0100738 0.069786
322 1 0.111107 0.305065 0.0632115
324 1 0.0043712 0.291122 0.0700484
325 1 0.20885 0.208494 0.0586289
326 1 0.316218 0.302191 0.0582578
328 1 0.221907 0.303982 0.0696841
330 1 0.500236 0.310868 0.0611327
349 1 0.401601 0.394618 0.0605444
332 1 0.40683 0.301078 0.068851
331 1 0.502715 0.203631 0.0696099
236 1 0.604551 0.332342 0.0533782
334 1 0.695289 0.331747 0.0625044
321 1 0.993545 0.213862 0.0598191
337 1 0.80226 0.210276 0.0603592
338 1 0.89293 0.297975 0.0615263
341 1 0.0172932 0.411989 0.0623411
342 1 0.096988 0.507444 0.0610315
345 1 0.198922 0.403715 0.061322
346 1 0.301615 0.493571 0.061806
353 1 0.587134 0.429601 0.0599509
350 1 0.485922 0.519205 0.0596346
373 1 0.584943 0.58785 0.0631481
351 1 0.513918 0.413034 0.0697326
354 1 0.692736 0.506168 0.0610061
357 1 0.809696 0.406362 0.0612022
358 1 0.895535 0.495328 0.0613897
377 1 0.801096 0.599417 0.0602438
344 1 0.996685 0.510094 0.0695447
362 1 0.112717 0.716983 0.059467
361 1 0.00357318 0.606386 0.0598268
381 1 0.00133885 0.796896 0.0619141
365 1 0.213047 0.606958 0.0620244
366 1 0.29684 0.720901 0.0605822
369 1 0.367189 0.623913 0.0611192
276 1 0.586054 0.691472 0.0540445
370 1 0.473668 0.689158 0.0616123
376 1 0.609305 0.698946 0.0694318
374 1 0.695866 0.67279 0.0599185
395 1 0.704266 0.790973 0.0691565
378 1 0.886963 0.700886 0.0595175
397 1 0.801377 0.785848 0.0595935
301 1 0.0036827 0.987683 0.059533
382 1 0.108309 0.899257 0.059663
384 1 0.0111762 0.906701 0.0688184
388 1 0.191947 0.924592 0.0695961
309 1 0.39646 0.999019 0.0584473
387 1 0.296625 0.808617 0.0693669
389 1 0.389064 0.818476 0.0606835
385 1 0.202229 0.803048 0.0608483
386 1 0.297009 0.89983 0.0598522
392 1 0.389159 0.904828 0.0696461
390 1 0.523101 0.905588 0.0607288
393 1 0.620414 0.819173 0.060296
394 1 0.697505 0.929299 0.0593879
400 1 0.799625 0.900053 0.0700094
396 1 0.615792 0.923017 0.0701491
398 1 0.912766 0.901833 0.0612475
303 1 0.101704 0.0259351 0.0705425
402 1 0.114544 0.117421 0.0799677
405 1 0.192217 0.0170204 0.0799381
308 1 0.227799 0.0881133 0.0703032
406 1 0.311431 0.113252 0.0804269
410 1 0.518117 0.106096 0.0813306
409 1 0.415685 0.00773795 0.0809506
413 1 0.596311 0.0129989 0.082912
315 1 0.702386 0.00384957 0.0732509
414 1 0.713276 0.105537 0.08043
335 1 0.713846 0.192072 0.0707365
437 1 0.807561 0.191985 0.0817393
418 1 0.898575 0.0974833 0.0813281
421 1 0.995774 0.198219 0.0796007
401 1 0.994338 0.00902508 0.0778874
422 1 0.108277 0.283519 0.0783856
425 1 0.221588 0.207969 0.0793026
445 1 0.210856 0.380641 0.0795019
426 1 0.343118 0.301705 0.0803784
429 1 0.419694 0.202933 0.079453
430 1 0.50245 0.301601 0.0788637
336 1 0.599476 0.311184 0.0708134
340 1 0.799861 0.304426 0.0704918
433 1 0.601071 0.201597 0.0792199
434 1 0.699044 0.297596 0.0789437
359 1 0.892101 0.39703 0.0705558
438 1 0.898437 0.284593 0.0784015
441 1 0.996049 0.39869 0.0803719
343 1 0.107905 0.40297 0.0714451
442 1 0.0869332 0.51565 0.0794999
347 1 0.319571 0.401466 0.0702301
367 1 0.315958 0.599855 0.0721396
348 1 0.208509 0.496481 0.0702363
446 1 0.298703 0.497739 0.0794607
352 1 0.386047 0.497438 0.0708809
449 1 0.409836 0.417342 0.0809125
450 1 0.508153 0.503399 0.0804071
355 1 0.70575 0.425062 0.0705805
356 1 0.608994 0.506816 0.0715704
360 1 0.796346 0.51006 0.0703241
453 1 0.603765 0.407171 0.0797173
457 1 0.784717 0.417544 0.0807581
454 1 0.700992 0.517542 0.0805982
458 1 0.915456 0.496827 0.0804499
383 1 0.1098 0.798902 0.0702175
364 1 0.00121211 0.70491 0.0707199
363 1 0.100115 0.611823 0.0710413
462 1 0.0855049 0.719181 0.0796741
368 1 0.219352 0.705272 0.0708573
465 1 0.204807 0.60256 0.0811615
466 1 0.306867 0.69991 0.0809869
372 1 0.389298 0.712569 0.0711676
371 1 0.468468 0.602534 0.0719615
391 1 0.498541 0.7915 0.070252
469 1 0.412708 0.613944 0.0827921
473 1 0.582727 0.609053 0.0828719
470 1 0.5189 0.699262 0.0799778
375 1 0.693508 0.61031 0.0720885
474 1 0.709072 0.701494 0.0811131
380 1 0.804658 0.695578 0.0711468
379 1 0.917239 0.610034 0.0702882
477 1 0.825866 0.620212 0.0819846
461 1 0.99886 0.621934 0.0796341
478 1 0.896798 0.723502 0.0797306
482 1 0.10524 0.916443 0.0803961
307 1 0.306057 0.992352 0.0707856
485 1 0.203051 0.807638 0.0800063
489 1 0.385384 0.836616 0.0800595
486 1 0.280882 0.903978 0.0812594
311 1 0.498786 0.993966 0.0702966
490 1 0.503941 0.917631 0.0798537
493 1 0.621781 0.813051 0.0802789
494 1 0.690174 0.9136 0.0810491
497 1 0.795479 0.802333 0.0809505
481 1 0.998081 0.81505 0.0801674
399 1 0.900128 0.801419 0.070446
417 1 0.815457 0.999107 0.0812933
498 1 0.901712 0.908366 0.0787939
502 1 0.0736811 0.109262 0.101833
404 1 0.0107163 0.126938 0.0889865
403 1 0.100161 0.0312958 0.0888659
525 1 0.193774 0.194416 0.0983922
505 1 0.193204 0.0107839 0.0980878
408 1 0.21414 0.107205 0.0890018
506 1 0.288447 0.11508 0.101953
407 1 0.31914 0.0106513 0.0930949
412 1 0.398461 0.10311 0.0902794
529 1 0.412277 0.199219 0.0995826
510 1 0.493356 0.094044 0.102283
416 1 0.578045 0.097603 0.0925992
411 1 0.492878 0.0134283 0.091565
514 1 0.702529 0.105206 0.0998941
435 1 0.698157 0.199771 0.0886356
415 1 0.715746 0.0236252 0.0905896
513 1 0.614848 0.00117272 0.100108
420 1 0.80321 0.114814 0.0921871
518 1 0.906899 0.113569 0.0994836
501 1 0.992556 0.0105931 0.10196
517 1 0.806467 0.00261938 0.0994218
419 1 0.916624 0.0156301 0.0910691
423 1 0.105422 0.210963 0.0897294
522 1 0.101168 0.320224 0.101201
521 1 0.0238039 0.219911 0.100732
443 1 0.104995 0.384323 0.0890069
427 1 0.309812 0.215112 0.0901705
428 1 0.213157 0.31256 0.0920791
526 1 0.315194 0.328111 0.100264
431 1 0.520694 0.206447 0.0912462
533 1 0.593451 0.200077 0.101339
432 1 0.421451 0.303243 0.0900693
530 1 0.501937 0.30256 0.100358
451 1 0.504848 0.397561 0.0899423
537 1 0.776577 0.220982 0.0987617
436 1 0.606676 0.301483 0.0894729
534 1 0.69406 0.324968 0.100471
440 1 0.798409 0.308263 0.088836
439 1 0.897615 0.203363 0.0905264
424 1 0.990335 0.316802 0.0923421
538 1 0.885288 0.310478 0.0998245
448 1 0.198803 0.491825 0.0878369
542 1 0.110681 0.496393 0.0988033
565 1 0.181574 0.597067 0.100812
444 1 0.0142881 0.506639 0.0905664
447 1 0.315364 0.421137 0.0906393
545 1 0.20605 0.405308 0.101981
546 1 0.287912 0.508538 0.102109
467 1 0.2865 0.588197 0.08983
549 1 0.405857 0.402392 0.0987775
553 1 0.593102 0.405158 0.0993477
452 1 0.411411 0.516613 0.0907973
550 1 0.490348 0.517565 0.101842
456 1 0.589625 0.500936 0.0900811
557 1 0.798435 0.401779 0.0976865
455 1 0.694478 0.415325 0.0896002
554 1 0.694253 0.503576 0.101688
460 1 0.805621 0.51828 0.0900272
577 1 0.804965 0.597641 0.0996703
541 1 0.991516 0.425 0.100908
459 1 0.895218 0.414312 0.0904625
558 1 0.893905 0.498923 0.0998792
479 1 0.916275 0.599838 0.0907183
561 1 0.0123516 0.604048 0.0998717
463 1 0.0886903 0.610806 0.0896297
562 1 0.105657 0.706865 0.101021
468 1 0.178898 0.697236 0.08999
487 1 0.274095 0.789693 0.0902785
569 1 0.375343 0.615565 0.100485
566 1 0.258648 0.699125 0.100074
472 1 0.388018 0.707089 0.0915679
471 1 0.491331 0.624156 0.092657
573 1 0.597958 0.602615 0.100102
570 1 0.491396 0.718824 0.101081
491 1 0.509569 0.788165 0.0890278
476 1 0.626509 0.722113 0.0902269
475 1 0.70714 0.606768 0.0922636
574 1 0.73172 0.717873 0.102758
480 1 0.785257 0.70557 0.0918133
464 1 0.985661 0.709235 0.0902735
578 1 0.889999 0.713026 0.0990924
483 1 0.0899673 0.8107 0.0916537
585 1 0.187236 0.811956 0.0994179
582 1 0.0913541 0.917488 0.100582
484 1 0.00784234 0.921119 0.0892542
488 1 0.198805 0.910336 0.0904819
589 1 0.388865 0.811718 0.100416
509 1 0.380703 0.994581 0.104073
586 1 0.295419 0.900797 0.101852
492 1 0.370922 0.900596 0.0909869
590 1 0.475234 0.911983 0.10103
496 1 0.5766 0.907 0.0894147
593 1 0.606242 0.805286 0.0996624
495 1 0.70822 0.817946 0.0902076
594 1 0.718395 0.905184 0.0985206
581 1 0.994631 0.809314 0.0998646
499 1 0.918818 0.823027 0.0901677
597 1 0.81446 0.813725 0.0987573
500 1 0.814805 0.897143 0.0886727
598 1 0.910701 0.912747 0.0983932
602 1 0.0782632 0.126467 0.119768
508 1 0.191636 0.101341 0.111316
503 1 0.0885692 0.0115461 0.111451
605 1 0.17643 0.00431139 0.12228
606 1 0.28393 0.110274 0.120453
512 1 0.395163 0.109729 0.111575
609 1 0.383143 0.0108822 0.119472
507 1 0.283092 0.0131259 0.111767
610 1 0.498706 0.10314 0.121051
531 1 0.487999 0.198887 0.109201
511 1 0.504968 0.00120955 0.111331
633 1 0.593155 0.199664 0.118071
516 1 0.605906 0.0886109 0.109396
614 1 0.69281 0.118164 0.120305
617 1 0.790608 0.0182302 0.121336
520 1 0.775182 0.112494 0.110008
613 1 0.600495 0.0181116 0.120415
601 1 0.983737 0.0284814 0.121802
504 1 0.983105 0.122822 0.112343
519 1 0.875843 0.04293 0.110079
523 1 0.120455 0.217852 0.110796
622 1 0.0997666 0.295441 0.121106
645 1 0.180513 0.382823 0.11773
629 1 0.393656 0.211745 0.119933
625 1 0.201032 0.203313 0.120646
528 1 0.227782 0.301008 0.108317
527 1 0.312211 0.203199 0.110777
626 1 0.28926 0.294726 0.121353
532 1 0.397812 0.309657 0.10843
630 1 0.488101 0.302013 0.118763
536 1 0.58303 0.31022 0.109735
535 1 0.685965 0.207021 0.109594
634 1 0.678089 0.291691 0.119713
637 1 0.787936 0.201384 0.121216
539 1 0.884578 0.215004 0.108017
621 1 0.983602 0.222879 0.120053
540 1 0.800746 0.311263 0.110459
524 1 0.986902 0.318131 0.111316
638 1 0.893525 0.3274 0.122637
543 1 0.094383 0.413513 0.109755
642 1 0.0761884 0.510751 0.120369
548 1 0.181016 0.503223 0.111817
665 1 0.178442 0.592066 0.12205
547 1 0.300258 0.402833 0.113126
552 1 0.382502 0.502098 0.111569
649 1 0.409224 0.404739 0.120811
551 1 0.491605 0.407996 0.110742
650 1 0.488832 0.531014 0.119236
556 1 0.591266 0.509669 0.109432
555 1 0.72637 0.406237 0.110273
653 1 0.615376 0.405777 0.11702
654 1 0.700988 0.521534 0.119751
560 1 0.7903 0.530473 0.110116
657 1 0.800638 0.43134 0.120442
559 1 0.896792 0.419592 0.109772
641 1 0.981527 0.410203 0.120634
544 1 0.997194 0.529967 0.110695
658 1 0.891743 0.517389 0.119382
563 1 0.0945699 0.621484 0.110673
662 1 0.0924378 0.715981 0.119527
568 1 0.197431 0.695151 0.111597
567 1 0.29883 0.620469 0.113421
587 1 0.284971 0.792234 0.112158
572 1 0.398616 0.720719 0.110317
689 1 0.379625 0.78861 0.121959
571 1 0.494308 0.616822 0.109875
669 1 0.409124 0.630163 0.119444
670 1 0.50274 0.718109 0.120563
673 1 0.595171 0.625915 0.120064
576 1 0.594727 0.72121 0.109446
575 1 0.672576 0.611232 0.11025
674 1 0.700247 0.732088 0.117662
661 1 0.975599 0.624992 0.119277
564 1 0.993609 0.708727 0.10945
677 1 0.802427 0.618222 0.119374
579 1 0.889949 0.604031 0.108758
580 1 0.841003 0.7305 0.111204
678 1 0.902585 0.737852 0.120883
583 1 0.0899266 0.80492 0.109855
681 1 0.000663128 0.814164 0.120338
682 1 0.0822208 0.922128 0.12223
584 1 0.017664 0.908873 0.110828
685 1 0.167749 0.815974 0.119556
588 1 0.1958 0.912981 0.111298
686 1 0.29054 0.909245 0.121647
592 1 0.379739 0.891749 0.112231
591 1 0.485744 0.823689 0.110471
693 1 0.596916 0.813685 0.121068
690 1 0.482101 0.917346 0.119769
515 1 0.714341 0.998337 0.11029
595 1 0.734682 0.825694 0.109092
596 1 0.608431 0.902739 0.108041
694 1 0.692905 0.894305 0.118555
599 1 0.919405 0.830155 0.111013
697 1 0.806403 0.833219 0.119747
600 1 0.821522 0.9199 0.108882
698 1 0.90051 0.927137 0.11995
608 1 0.187637 0.11162 0.130365
603 1 0.0657045 0.016877 0.131765
607 1 0.280286 0.00526331 0.130459
627 1 0.2833 0.19781 0.131081
612 1 0.394 0.121805 0.129735
709 1 0.394609 0.020331 0.139569
706 1 0.311276 0.106442 0.140063
710 1 0.499914 0.106521 0.140152
611 1 0.486111 0.0234912 0.131132
713 1 0.597434 0.0335625 0.139651
616 1 0.603825 0.126914 0.130924
620 1 0.772532 0.112302 0.130892
615 1 0.690867 0.0113336 0.128506
717 1 0.767523 0.00351515 0.139716
618 1 0.883099 0.11935 0.123413
604 1 0.985063 0.118403 0.12971
718 1 0.857677 0.109025 0.140306
619 1 0.874378 0.0219997 0.131901
623 1 0.0920962 0.202816 0.12997
628 1 0.192277 0.306165 0.130358
725 1 0.194498 0.202241 0.139459
643 1 0.0789779 0.392421 0.13032
647 1 0.289902 0.394135 0.132785
632 1 0.389958 0.303472 0.13235
733 1 0.59921 0.206962 0.140177
631 1 0.483408 0.204479 0.129567
636 1 0.583391 0.302977 0.130265
730 1 0.489181 0.302718 0.139993
635 1 0.699512 0.218698 0.129976
640 1 0.78979 0.324372 0.131452
639 1 0.863792 0.214029 0.132041
624 1 0.993868 0.291412 0.1314
648 1 0.178895 0.472317 0.130404
646 1 0.274989 0.497931 0.122992
746 1 0.293293 0.500548 0.139601
652 1 0.394931 0.533643 0.131741
749 1 0.400785 0.429352 0.138004
651 1 0.505923 0.401122 0.129318
750 1 0.513994 0.503981 0.139403
655 1 0.693936 0.42319 0.131737
656 1 0.603292 0.519973 0.130881
660 1 0.797645 0.51348 0.131121
644 1 0.981732 0.504685 0.129342
659 1 0.884844 0.420558 0.131536
663 1 0.0619413 0.636276 0.13064
668 1 0.178595 0.70777 0.128992
765 1 0.179501 0.617058 0.140189
666 1 0.287831 0.711616 0.123057
667 1 0.283865 0.600601 0.131991
672 1 0.37512 0.685551 0.132539
671 1 0.512557 0.630677 0.130118
691 1 0.478933 0.783522 0.132791
676 1 0.607253 0.716761 0.130575
675 1 0.695434 0.616912 0.128811
680 1 0.777464 0.732011 0.127293
774 1 0.703842 0.70369 0.140197
679 1 0.887706 0.620626 0.12911
664 1 0.973681 0.730241 0.130934
683 1 0.0786497 0.804249 0.130025
688 1 0.175074 0.900934 0.130828
782 1 0.0607012 0.915005 0.138557
687 1 0.279905 0.814873 0.131457
786 1 0.292524 0.913254 0.140033
692 1 0.408924 0.889682 0.130946
696 1 0.573487 0.917836 0.131207
695 1 0.696096 0.818987 0.131594
700 1 0.79202 0.903118 0.129734
794 1 0.692829 0.912921 0.138924
699 1 0.877508 0.816408 0.13112
684 1 0.964883 0.906174 0.131003
705 1 0.181584 0.00814217 0.14037
702 1 0.0840813 0.122297 0.141335
704 1 4.39225e-06 0.0883956 0.15475
723 1 0.0929183 0.195585 0.152771
708 1 0.186111 0.0962663 0.14992
703 1 0.0892618 0.0146791 0.149149
712 1 0.393247 0.0942181 0.15068
727 1 0.285937 0.176365 0.152304
707 1 0.282264 0.0163842 0.149912
711 1 0.488434 0.0154199 0.148502
716 1 0.613384 0.102124 0.149792
714 1 0.703313 0.122673 0.141252
720 1 0.778013 0.102581 0.152249
721 1 0.968818 0.192735 0.140497
701 1 0.973684 0.02224 0.14088
739 1 0.892512 0.187655 0.150282
719 1 0.893872 0.0163629 0.151754
722 1 0.0811403 0.282501 0.141202
745 1 0.177932 0.393081 0.140638
743 1 0.0717924 0.397881 0.150471
728 1 0.18348 0.315588 0.15292
726 1 0.271512 0.299114 0.140797
729 1 0.395025 0.212253 0.142106
732 1 0.399241 0.33074 0.148701
731 1 0.491363 0.222981 0.14966
753 1 0.585346 0.396926 0.14053
736 1 0.591584 0.318364 0.152277
734 1 0.686788 0.310236 0.14043
737 1 0.779777 0.225641 0.140869
735 1 0.687847 0.207033 0.151572
755 1 0.704173 0.389048 0.14981
740 1 0.795758 0.306341 0.151958
738 1 0.884162 0.303183 0.142538
724 1 0.97519 0.305929 0.150931
742 1 0.084259 0.496647 0.140879
744 1 0.00569632 0.506725 0.150113
748 1 0.190897 0.502181 0.147877
747 1 0.281261 0.407077 0.149229
752 1 0.3797 0.493021 0.150506
767 1 0.273152 0.593903 0.149399
751 1 0.48214 0.426263 0.149325
771 1 0.500605 0.588322 0.151255
754 1 0.724089 0.511125 0.141832
756 1 0.616102 0.497175 0.149352
760 1 0.798869 0.50891 0.152426
741 1 0.972271 0.419092 0.140477
757 1 0.810703 0.417587 0.141453
759 1 0.898665 0.431524 0.15136
758 1 0.892664 0.518474 0.14064
763 1 0.118845 0.612048 0.151781
762 1 0.0933719 0.716423 0.140711
764 1 0.0138859 0.707297 0.151081
768 1 0.198512 0.717553 0.15233
769 1 0.384447 0.623208 0.142304
766 1 0.274406 0.71412 0.141211
772 1 0.359461 0.702212 0.150971
773 1 0.599817 0.61669 0.142234
770 1 0.49511 0.695065 0.142679
776 1 0.587692 0.719985 0.151187
775 1 0.696147 0.614583 0.15071
780 1 0.788957 0.718643 0.149581
761 1 0.991235 0.626622 0.142124
779 1 0.897044 0.628646 0.150802
777 1 0.811804 0.628074 0.140447
778 1 0.881087 0.73246 0.140647
799 1 0.920109 0.797563 0.15181
781 1 0.000536719 0.815493 0.141261
785 1 0.171876 0.818186 0.141107
783 1 0.0976825 0.820145 0.151674
784 1 0.0030216 0.904914 0.15079
788 1 0.178444 0.914773 0.150852
789 1 0.389743 0.80743 0.14094
787 1 0.293508 0.834376 0.14926
792 1 0.39735 0.931974 0.149946
793 1 0.599445 0.816247 0.140949
790 1 0.484827 0.90652 0.140669
791 1 0.485289 0.801968 0.149985
796 1 0.590904 0.919681 0.150638
795 1 0.694916 0.818683 0.150072
797 1 0.789409 0.809583 0.141832
715 1 0.68792 0.990804 0.150795
800 1 0.793379 0.900328 0.150635
798 1 0.896173 0.918854 0.1425
802 1 0.114938 0.0744477 0.16049
823 1 0.0902701 0.197536 0.168782
825 1 0.196002 0.197816 0.161806
808 1 0.208398 0.0982998 0.170775
806 1 0.297886 0.111779 0.163046
807 1 0.308041 0.00779941 0.172386
809 1 0.382197 0.00684392 0.161427
812 1 0.422456 0.10558 0.171004
810 1 0.51046 0.107698 0.159265
816 1 0.586646 0.0915912 0.16934
829 1 0.41133 0.193837 0.159472
814 1 0.688856 0.102475 0.161737
835 1 0.689388 0.185765 0.171004
837 1 0.789609 0.190646 0.161672
820 1 0.789944 0.108349 0.170935
804 1 0.997466 0.100182 0.169836
818 1 0.884331 0.100921 0.163085
839 1 0.89123 0.196867 0.170736
822 1 0.0823362 0.290108 0.159635
824 1 0.00812665 0.313836 0.169311
828 1 0.174453 0.306869 0.169612
827 1 0.293349 0.2224 0.168932
826 1 0.302734 0.321225 0.15918
832 1 0.399996 0.302799 0.169968
831 1 0.487601 0.216944 0.168798
833 1 0.586662 0.204567 0.160041
830 1 0.48708 0.308936 0.159323
836 1 0.573444 0.306781 0.168653
834 1 0.688473 0.286538 0.163503
840 1 0.778864 0.300112 0.171798
821 1 0.967904 0.204957 0.160248
838 1 0.88177 0.30614 0.160522
859 1 0.899266 0.397916 0.170103
845 1 0.199822 0.414698 0.160517
843 1 0.101676 0.406861 0.168787
842 1 0.107476 0.507952 0.159395
863 1 0.0823409 0.596349 0.169942
848 1 0.181374 0.500187 0.170033
847 1 0.293554 0.402168 0.169458
849 1 0.391118 0.408131 0.160203
846 1 0.30442 0.500512 0.160825
850 1 0.490009 0.491485 0.159629
852 1 0.401516 0.516307 0.169754
851 1 0.514913 0.422575 0.169786
873 1 0.596465 0.594863 0.159916
871 1 0.506931 0.593213 0.169754
853 1 0.623395 0.416702 0.161258
855 1 0.725455 0.413373 0.169954
856 1 0.614905 0.520048 0.170038
854 1 0.696909 0.518556 0.159606
857 1 0.801514 0.403381 0.160777
841 1 0.988 0.417452 0.160591
844 1 0.983745 0.487667 0.171813
860 1 0.804001 0.506464 0.16914
858 1 0.917243 0.519267 0.159365
861 1 0.00128715 0.612927 0.160944
862 1 0.101728 0.708458 0.160557
864 1 0.00312348 0.70041 0.170355
881 1 0.00689314 0.797055 0.161259
868 1 0.177418 0.682198 0.170446
865 1 0.206845 0.620144 0.160171
869 1 0.387383 0.607247 0.15947
867 1 0.30026 0.610259 0.170855
866 1 0.281414 0.724275 0.161547
872 1 0.410826 0.706709 0.168954
870 1 0.503868 0.703287 0.159128
875 1 0.734071 0.600537 0.171496
876 1 0.601993 0.692031 0.169317
874 1 0.695546 0.699324 0.159725
877 1 0.798963 0.607997 0.161343
897 1 0.792066 0.784268 0.162043
880 1 0.812776 0.706951 0.172083
879 1 0.885782 0.611884 0.17008
878 1 0.898343 0.709017 0.161353
899 1 0.908926 0.790066 0.17147
803 1 0.0955076 0.995295 0.171646
883 1 0.0917063 0.820354 0.171563
882 1 0.0950669 0.936372 0.161147
885 1 0.183306 0.835419 0.161715
888 1 0.194586 0.905045 0.172727
805 1 0.219319 0.983459 0.162265
887 1 0.298675 0.809766 0.171149
886 1 0.29631 0.889018 0.161086
889 1 0.386783 0.803553 0.160677
892 1 0.394484 0.913976 0.168836
893 1 0.596663 0.813072 0.161089
891 1 0.495791 0.811928 0.168818
811 1 0.499815 0.996008 0.168951
890 1 0.487823 0.901616 0.159702
896 1 0.58978 0.903651 0.169991
813 1 0.602814 0.999192 0.160654
895 1 0.70949 0.811577 0.170497
815 1 0.700168 0.98484 0.170066
894 1 0.707247 0.901921 0.16076
817 1 0.811159 0.996896 0.160683
819 1 0.8882 0.989545 0.172107
801 1 0.98022 0.991768 0.162057
884 1 0.978472 0.898474 0.16985
900 1 0.807236 0.890984 0.170708
898 1 0.894974 0.897518 0.159043
902 1 0.114248 0.0933483 0.182028
923 1 0.115156 0.198729 0.189458
904 1 0.00620987 0.110026 0.189071
908 1 0.228601 0.101954 0.188347