ITEM: TIMESTEP
15000
ITEM: NUMBER OF ATOMS
5000
ITEM: BOX BOUNDS pp pp pp
0.0000000000000000e+00 8.0180007035687204e+00
0.0000000000000000e+00 8.0180007035687204e+00
0.0000000000000000e+00 8.0180007035687197e+01
ITEM: ATOMS id type xs ys zs
4 1 0.000292725 0.0797373 0.0107197
8 1 0.191221 0.0976064 0.00977879
23 1 0.0847997 0.192456 0.0100124
7 1 0.302359 0.00980542 0.00976165
27 1 0.292897 0.183586 0.00963985
29 1 0.389761 0.182323 0.00034227
12 1 0.413205 0.093871 0.00960969
16 1 0.573016 0.0974234 0.010605
31 1 0.491423 0.191829 0.0071489
14 1 0.692651 0.103158 3.19792e-05
20 1 0.80073 0.0952911 0.0087183
39 1 0.89338 0.198802 0.00808098
22 1 0.0724745 0.288062 0.000719386
28 1 0.199029 0.27156 0.00932538
43 1 0.0905811 0.397616 0.00786053
26 1 0.314123 0.305299 0.000348841
32 1 0.415777 0.296504 0.0082256
36 1 0.587131 0.299378 0.00871704
51 1 0.492174 0.399793 0.00799496
35 1 0.700556 0.20206 0.00910966
40 1 0.782096 0.306165 0.0104423
55 1 0.686763 0.394721 0.0102355
24 1 0.983293 0.30346 0.0100121
48 1 0.180808 0.500944 0.00960867
63 1 0.0867301 0.599354 0.00902594
47 1 0.27406 0.407902 0.00975715
52 1 0.382385 0.47785 0.0103856
67 1 0.306582 0.591431 0.00984043
69 1 0.389134 0.583375 0.00100805
71 1 0.504401 0.588977 0.00866074
56 1 0.601591 0.487458 0.00905746
75 1 0.698295 0.587411 0.00995487
59 1 0.894961 0.404726 0.00747725
60 1 0.805549 0.506943 0.0072996
44 1 0.999801 0.502932 0.00862468
79 1 0.895327 0.599378 0.00880414
62 1 0.0915258 0.69779 4.66213e-05
68 1 0.196421 0.691458 0.00877966
83 1 0.0913299 0.792518 0.010613
85 1 0.192635 0.796544 0.000495877
87 1 0.304877 0.794072 0.00730977
72 1 0.422032 0.704604 0.0092527
91 1 0.506149 0.797796 0.00973809
76 1 0.602495 0.681961 0.00938663
80 1 0.782673 0.685808 0.00782449
95 1 0.704393 0.784172 0.0113788
64 1 0.988708 0.70363 0.0107563
99 1 0.882453 0.794177 0.010257
3 1 0.0917625 0.996699 0.0104323
5 1 0.19894 0.9945 0.000204059
84 1 0.00248632 0.897224 0.0114465
88 1 0.181115 0.896636 0.0108824
82 1 0.105013 0.897415 0.00102261
81 1 0.00444653 0.800263 0.000150316
92 1 0.397132 0.898311 0.00904932
9 1 0.40188 0.985268 0.000386534
11 1 0.499894 0.982557 0.00948778
15 1 0.683651 0.994852 0.00927724
96 1 0.622035 0.876199 0.0109123
100 1 0.793085 0.891309 0.011673
19 1 0.887221 0.993483 0.00953461
98 1 0.899434 0.893678 0.000485373
102 1 0.102943 0.0987235 0.0210068
104 1 0.00196814 0.118491 0.0294789
125 1 0.193489 0.184609 0.0195923
105 1 0.196569 0.000793478 0.0190121
108 1 0.204276 0.086199 0.0300964
106 1 0.301082 0.101384 0.0192255
112 1 0.386272 0.0955589 0.0288406
127 1 0.284526 0.193706 0.0297957
110 1 0.488204 0.0944292 0.0204569
116 1 0.592815 0.0908724 0.0296373
133 1 0.589422 0.194854 0.0190238
129 1 0.401917 0.189939 0.0179384
131 1 0.500501 0.182257 0.0297139
114 1 0.685739 0.0969512 0.0205796
117 1 0.786718 0.00893265 0.0196756
120 1 0.79948 0.109256 0.0300712
135 1 0.687785 0.19006 0.0302421
137 1 0.789742 0.196533 0.0186743
118 1 0.903439 0.112524 0.0198036
119 1 0.89571 0.00756656 0.0286675
123 1 0.0986715 0.207841 0.029092
122 1 0.0882204 0.291917 0.0187708
128 1 0.192816 0.299224 0.0292324
143 1 0.096426 0.392111 0.0288635
145 1 0.197474 0.384679 0.019486
126 1 0.309034 0.278005 0.0182648
147 1 0.287361 0.386113 0.028646
132 1 0.384919 0.293699 0.0285791
149 1 0.375868 0.379861 0.0181281
130 1 0.488647 0.289653 0.0192534
151 1 0.480076 0.389833 0.0291734
136 1 0.581222 0.301642 0.0289611
153 1 0.580793 0.393969 0.0189014
134 1 0.677085 0.293582 0.0196552
140 1 0.788262 0.282538 0.0288709
155 1 0.698453 0.379941 0.0296976
121 1 0.988193 0.205266 0.0200048
124 1 0.997974 0.301062 0.0292678
139 1 0.891436 0.200661 0.0297099
138 1 0.883932 0.287352 0.0189046
141 1 0.963685 0.393332 0.018394
157 1 0.801071 0.399583 0.0191998
159 1 0.883008 0.382549 0.0294642
142 1 0.0812966 0.481661 0.0189019
148 1 0.186756 0.492785 0.0289663
163 1 0.0874462 0.585302 0.0277564
165 1 0.192637 0.598542 0.0180112
146 1 0.292739 0.496599 0.0197795
152 1 0.401192 0.484133 0.0296136
150 1 0.498147 0.495158 0.0189293
156 1 0.585997 0.486668 0.0303446
169 1 0.410469 0.58936 0.0180219
171 1 0.502197 0.593858 0.0294478
154 1 0.691217 0.479681 0.0199131
160 1 0.785644 0.491763 0.0287635
175 1 0.692738 0.576207 0.030768
173 1 0.611551 0.578804 0.02055
177 1 0.787128 0.583703 0.0195585
144 1 0.982555 0.485988 0.027873
158 1 0.89018 0.507212 0.0179284
161 1 0.993714 0.596228 0.0193556
179 1 0.898036 0.59485 0.0286228
162 1 0.10528 0.693929 0.0198789
181 1 0.00328437 0.785138 0.0206726
168 1 0.189858 0.668557 0.0291044
183 1 0.112617 0.789595 0.0287398
167 1 0.300262 0.603481 0.0290623
166 1 0.302125 0.698746 0.01918
187 1 0.300561 0.795621 0.0285311
185 1 0.211134 0.795218 0.0189604
172 1 0.40575 0.696647 0.0295649
170 1 0.504894 0.695155 0.0199369
189 1 0.411002 0.791234 0.020824
191 1 0.505883 0.798209 0.0302221
176 1 0.60221 0.684913 0.0304504
174 1 0.694437 0.692787 0.0209251
180 1 0.79121 0.684026 0.0289202
193 1 0.612996 0.792626 0.0205038
195 1 0.702615 0.793729 0.0293423
197 1 0.7932 0.795297 0.0203175
164 1 0.98549 0.697102 0.0295911
178 1 0.876906 0.690953 0.0188898
101 1 0.00205816 0.98975 0.0209587
182 1 0.0926515 0.892085 0.0205753
103 1 0.10546 0.993985 0.0292997
184 1 0.0093634 0.873647 0.030206
107 1 0.299531 0.999773 0.028864
188 1 0.207614 0.903649 0.0292868
186 1 0.296084 0.902485 0.0189271
111 1 0.497279 0.989039 0.0287185
109 1 0.403708 0.993846 0.0189131
113 1 0.587592 0.983006 0.019453
192 1 0.40183 0.901585 0.0288134
190 1 0.50939 0.875278 0.0199365
115 1 0.708919 0.997302 0.0310855
196 1 0.601292 0.903652 0.0299769
194 1 0.705318 0.902043 0.020747
200 1 0.790626 0.887044 0.0302316
199 1 0.897693 0.80978 0.0293657
198 1 0.886699 0.899043 0.020852
202 1 0.0903481 0.110666 0.0380494
203 1 0.0886165 0.00222155 0.0470875
223 1 0.0824493 0.189492 0.0486622
208 1 0.195632 0.12473 0.0507338
225 1 0.196559 0.197783 0.0394289
206 1 0.292724 0.101912 0.0398448
227 1 0.315418 0.19383 0.0503415
229 1 0.397638 0.179129 0.0389136
212 1 0.404998 0.0907331 0.0498007
210 1 0.485316 0.0779501 0.0380912
216 1 0.585219 0.0907188 0.0493311
233 1 0.594831 0.183666 0.0399144
214 1 0.69318 0.0947439 0.0390733
220 1 0.783004 0.0915064 0.0489358
235 1 0.685652 0.18664 0.0509901
237 1 0.771654 0.196085 0.0405701
204 1 0.99013 0.0859956 0.0490266
218 1 0.891342 0.105277 0.0394861
219 1 0.895667 0.00736428 0.0489444
239 1 0.886563 0.190682 0.0504848
222 1 0.0840219 0.292667 0.0391236
243 1 0.0865388 0.384913 0.0492368
245 1 0.185356 0.371313 0.0396529
228 1 0.207476 0.281268 0.0498834
226 1 0.308668 0.278294 0.0394314
232 1 0.396997 0.317513 0.0501178
247 1 0.287232 0.380319 0.0483156
249 1 0.38641 0.399817 0.0400003
231 1 0.492985 0.212424 0.0495762
230 1 0.470322 0.282189 0.039463
236 1 0.588603 0.297343 0.0496273
253 1 0.572095 0.373693 0.039559
234 1 0.688794 0.301839 0.040198
257 1 0.782349 0.391133 0.0415715
221 1 0.987172 0.201402 0.0397702
224 1 0.97761 0.287418 0.0501688
240 1 0.800361 0.286225 0.0502785
238 1 0.88233 0.293213 0.0385885
241 1 0.983221 0.391416 0.040333
259 1 0.892814 0.396218 0.0500678
242 1 0.0783956 0.482213 0.0394682
263 1 0.0813079 0.597722 0.0494548
248 1 0.194452 0.493093 0.0500133
265 1 0.16958 0.585399 0.0392007
246 1 0.270841 0.488742 0.0391269
252 1 0.394802 0.500642 0.0484189
267 1 0.290406 0.582319 0.0472778
269 1 0.392082 0.591942 0.0387943
251 1 0.49744 0.40178 0.0509856
250 1 0.507421 0.485633 0.0410853
273 1 0.588807 0.580126 0.0392372
255 1 0.677155 0.402291 0.0507461
254 1 0.687365 0.484621 0.0405439
260 1 0.79506 0.494629 0.0493665
277 1 0.798477 0.596998 0.0384586
275 1 0.687161 0.59937 0.0485719
244 1 0.991948 0.487689 0.0497882
258 1 0.882834 0.487231 0.0390944
279 1 0.894825 0.591228 0.0479643
261 1 0.98961 0.590464 0.0381304
262 1 0.0888228 0.698997 0.03816
268 1 0.188029 0.688578 0.0473628
283 1 0.0978175 0.798946 0.0497734
266 1 0.305177 0.700781 0.0381289
285 1 0.20524 0.787714 0.0388104
287 1 0.295395 0.785982 0.0506594
271 1 0.496519 0.606935 0.0495377
272 1 0.402278 0.696906 0.0513184
270 1 0.501866 0.696969 0.0386225
289 1 0.405588 0.798359 0.0376252
291 1 0.491654 0.795718 0.0481939
293 1 0.599445 0.798196 0.0393085
276 1 0.600285 0.697328 0.0493404
274 1 0.691684 0.701862 0.0390408
297 1 0.798663 0.785183 0.0387837
280 1 0.790571 0.703289 0.0503106
295 1 0.69333 0.797847 0.047895
264 1 0.985726 0.691281 0.0501688
278 1 0.899784 0.690814 0.0397206
281 1 0.990962 0.791635 0.0403533
299 1 0.891035 0.798552 0.049203
282 1 0.106921 0.882422 0.038034
288 1 0.199801 0.892479 0.049065
207 1 0.276343 0.997304 0.049966
205 1 0.203063 0.999867 0.0396499
209 1 0.371611 0.998378 0.0404872
286 1 0.290131 0.895363 0.0397919
292 1 0.377206 0.894408 0.049594
213 1 0.590141 0.991769 0.0410261
211 1 0.484722 0.975422 0.0495184
290 1 0.494715 0.89976 0.0396046
296 1 0.583611 0.884747 0.0494098
215 1 0.683188 0.994787 0.0503965
294 1 0.676082 0.892777 0.0401903
300 1 0.797095 0.892008 0.0493252
201 1 0.991143 0.993441 0.0370685
217 1 0.808148 0.991994 0.0396154
284 1 0.995594 0.904285 0.0481955
298 1 0.889555 0.898522 0.0386698
302 1 0.0854057 0.0772579 0.0588376
308 1 0.179351 0.0956113 0.0691222
323 1 0.0897535 0.187158 0.0699588
306 1 0.287047 0.10172 0.0595694
312 1 0.389053 0.0789459 0.0698962
329 1 0.408012 0.180243 0.0605137
310 1 0.508161 0.0968103 0.0597776
314 1 0.690191 0.0954908 0.0608478
333 1 0.600029 0.192544 0.0611487
304 1 0.989341 0.0943579 0.0689644
318 1 0.897429 0.0928279 0.06048
321 1 0.991264 0.18787 0.0598034
322 1 0.0881853 0.297694 0.0577611
324 1 0.0030506 0.28303 0.0686441
325 1 0.179117 0.203794 0.0604204
345 1 0.194664 0.364269 0.0600538
326 1 0.298105 0.287852 0.0596283
332 1 0.390788 0.299304 0.0695974
347 1 0.298781 0.390113 0.0696899
330 1 0.503075 0.297239 0.0598866
349 1 0.401346 0.396353 0.0613909
353 1 0.599712 0.397353 0.0624305
334 1 0.707245 0.298145 0.0602665
337 1 0.808572 0.202 0.0619311
338 1 0.888648 0.299516 0.0609106
342 1 0.0940746 0.492798 0.057719
343 1 0.0848349 0.415171 0.0684067
363 1 0.112726 0.581925 0.0682209
346 1 0.296884 0.476592 0.0575063
369 1 0.359507 0.591895 0.0584386
365 1 0.216002 0.576503 0.059776
348 1 0.201933 0.495262 0.0696779
352 1 0.394612 0.502165 0.0696861
367 1 0.295942 0.584815 0.0694961
256 1 0.595215 0.507976 0.0528242
350 1 0.481136 0.509696 0.0601097
351 1 0.496704 0.400082 0.0691868
354 1 0.699256 0.494185 0.0601936
360 1 0.791261 0.49622 0.0697974
341 1 0.987054 0.403179 0.0597982
361 1 0.991912 0.583323 0.0584535
357 1 0.802329 0.41173 0.0585712
358 1 0.893672 0.50314 0.0595501
377 1 0.80079 0.597859 0.0582545
379 1 0.901042 0.596381 0.069069
362 1 0.111419 0.694793 0.0608743
364 1 0.0137027 0.691668 0.068852
381 1 0.00111034 0.799028 0.0595804
368 1 0.191938 0.682388 0.0701238
383 1 0.0967458 0.794078 0.0678949
366 1 0.29387 0.692938 0.0608279
387 1 0.269666 0.790142 0.0696494
389 1 0.380052 0.796899 0.0609357
373 1 0.597998 0.603336 0.0610011
370 1 0.495689 0.694573 0.0617745
393 1 0.581642 0.794735 0.060233
374 1 0.701903 0.700035 0.0601631
397 1 0.797817 0.79528 0.0592066
378 1 0.897835 0.695352 0.0591057
305 1 0.193607 0.993028 0.0583621
382 1 0.0920375 0.906772 0.0580025
303 1 0.0934882 0.989818 0.0686583
388 1 0.186085 0.886198 0.0695708
309 1 0.387619 0.98849 0.0599826
385 1 0.203954 0.807618 0.0590973
386 1 0.296504 0.896248 0.0598449
392 1 0.390287 0.898763 0.0693575
313 1 0.590619 0.974607 0.0596958
390 1 0.481754 0.890736 0.0601539
311 1 0.491285 0.998423 0.0695566
317 1 0.781052 0.995125 0.0590886
394 1 0.689904 0.887416 0.0570299
301 1 0.992438 0.986726 0.0586647
400 1 0.803162 0.878245 0.0693647
398 1 0.900328 0.885405 0.0589863
319 1 0.895614 0.995809 0.0695805
384 1 0.985788 0.894671 0.0688006
402 1 0.0912038 0.0921687 0.0785591
327 1 0.31039 0.199203 0.0705582
406 1 0.296199 0.0705537 0.0791362
425 1 0.201341 0.191453 0.0810851
429 1 0.399232 0.179926 0.080355
316 1 0.587648 0.0943093 0.0710795
331 1 0.498746 0.188412 0.0701794
410 1 0.494291 0.0739213 0.0793893
433 1 0.574447 0.176877 0.0802572
320 1 0.796613 0.0825001 0.0703002
335 1 0.698293 0.185004 0.0712504
414 1 0.698319 0.0820693 0.0807998
437 1 0.789885 0.192384 0.0802782
339 1 0.899832 0.182564 0.0713021
418 1 0.897657 0.0816452 0.0807749
421 1 0.996429 0.1997 0.0800512
328 1 0.179889 0.283241 0.0711642
422 1 0.100004 0.285532 0.0811317
445 1 0.197219 0.394743 0.0786663
426 1 0.28493 0.295647 0.0809803
336 1 0.593963 0.282714 0.0701777
430 1 0.48807 0.294598 0.0784698
453 1 0.591644 0.39111 0.0806336
449 1 0.403199 0.390101 0.0793235
355 1 0.701446 0.390181 0.0703909
434 1 0.69561 0.288863 0.0797542
340 1 0.802884 0.295805 0.0723657
359 1 0.876086 0.39986 0.0704382
438 1 0.907244 0.298716 0.0810323
441 1 0.993747 0.389372 0.0803214
442 1 0.101871 0.484907 0.0799851
465 1 0.196091 0.592182 0.079773
446 1 0.304841 0.481718 0.0790447
371 1 0.497856 0.591474 0.0706999
356 1 0.595452 0.495193 0.0707909
450 1 0.49542 0.488952 0.0799337
469 1 0.40655 0.584399 0.0802197
457 1 0.794941 0.409946 0.0798322
454 1 0.697656 0.500453 0.0809555
477 1 0.787141 0.596772 0.0820673
473 1 0.605251 0.592735 0.0806912
344 1 0.993383 0.503495 0.0702559
458 1 0.887705 0.515981 0.0787661
461 1 0.991045 0.594266 0.0798677
462 1 0.0929033 0.697727 0.0801099
485 1 0.174845 0.798738 0.0787011
481 1 0.00242879 0.786787 0.0787303
466 1 0.298062 0.683147 0.0803609
372 1 0.388847 0.686499 0.071235
489 1 0.396551 0.782049 0.0805802
376 1 0.584941 0.693377 0.0713557
391 1 0.483425 0.794124 0.0708314
470 1 0.482657 0.678837 0.0808331
375 1 0.688842 0.607065 0.0707335
395 1 0.692181 0.793016 0.0715804
474 1 0.677291 0.703292 0.0802032
497 1 0.798079 0.79135 0.0805935
380 1 0.807604 0.710182 0.0706829
399 1 0.903712 0.789513 0.070894
478 1 0.891402 0.683707 0.0798944
405 1 0.179599 0.992626 0.079235
482 1 0.0914752 0.896181 0.0780189
307 1 0.278726 0.984578 0.0703463
486 1 0.299198 0.886425 0.0791766
409 1 0.399035 0.981531 0.0794537
413 1 0.592958 0.988817 0.0799629
490 1 0.489144 0.891352 0.0807883
493 1 0.594721 0.800074 0.0801183
396 1 0.588222 0.884521 0.0703163
315 1 0.689579 0.991798 0.0717618
417 1 0.789987 0.989654 0.0822955
494 1 0.687995 0.907126 0.0801929
401 1 0.990789 0.983906 0.0786788
498 1 0.889234 0.901747 0.0800725
502 1 0.0917599 0.0872139 0.100665
423 1 0.0910956 0.169095 0.0889738
525 1 0.197963 0.170867 0.101193
403 1 0.0946386 0.00289429 0.0907239
505 1 0.191187 0.00919419 0.100605
408 1 0.207295 0.0849781 0.0891794
506 1 0.293245 0.0905289 0.100931
412 1 0.388683 0.0821194 0.0886597
427 1 0.291152 0.176659 0.0907262
510 1 0.493613 0.0815965 0.0994454
431 1 0.479853 0.185319 0.089233
416 1 0.584566 0.0837724 0.0889562
529 1 0.400231 0.191446 0.0991088
533 1 0.586055 0.190979 0.100113
514 1 0.693514 0.0989058 0.0992584
435 1 0.675382 0.197149 0.0884807
420 1 0.7939 0.102426 0.08931
537 1 0.786617 0.194712 0.100034
521 1 0.986018 0.186091 0.099233
404 1 0.993676 0.0933354 0.0905804
518 1 0.87978 0.0878211 0.099911
439 1 0.900208 0.184998 0.0898354
522 1 0.108299 0.284327 0.100025
428 1 0.184986 0.271579 0.0904337
424 1 0.000621134 0.281079 0.0899447
443 1 0.110178 0.384633 0.0897931
545 1 0.19613 0.372898 0.101031
526 1 0.28235 0.283563 0.101185
432 1 0.398653 0.293279 0.0896733
447 1 0.308345 0.382579 0.0903528
549 1 0.389262 0.39795 0.100781
530 1 0.509644 0.291939 0.101136
451 1 0.506439 0.383664 0.0909794
436 1 0.58164 0.284513 0.0889037
534 1 0.680065 0.279995 0.10097
455 1 0.680685 0.376654 0.0914847
557 1 0.793183 0.383296 0.0996156
440 1 0.806792 0.289934 0.089137
538 1 0.897674 0.281603 0.09942
541 1 0.983447 0.385343 0.0983765
542 1 0.0715816 0.48237 0.0985384
565 1 0.199332 0.582107 0.0977729
463 1 0.0916405 0.584412 0.0889333
448 1 0.207467 0.471389 0.0902423
546 1 0.289242 0.502167 0.100883
452 1 0.389827 0.489218 0.0906119
467 1 0.293788 0.576574 0.0878413
569 1 0.387217 0.593648 0.0982057
550 1 0.476955 0.491582 0.10056
553 1 0.598037 0.410011 0.100445
573 1 0.591774 0.589322 0.100882
471 1 0.498885 0.593911 0.0906798
456 1 0.601959 0.480653 0.0893742
554 1 0.696058 0.495683 0.10017
460 1 0.784708 0.480672 0.0904803
577 1 0.782097 0.593545 0.100024
444 1 0.986678 0.485929 0.0888283
459 1 0.885533 0.401713 0.0885917
558 1 0.890609 0.497754 0.0996874
561 1 0.996802 0.583597 0.0991705
479 1 0.891301 0.589038 0.0898201
562 1 0.0964587 0.68497 0.0996066
468 1 0.191242 0.713098 0.0888763
585 1 0.185912 0.791763 0.0989097
483 1 0.0895985 0.796313 0.08878
566 1 0.27495 0.679433 0.0992033
487 1 0.288315 0.793149 0.0889407
472 1 0.373535 0.687741 0.090142
589 1 0.37729 0.785673 0.0985262
570 1 0.488856 0.689547 0.0998635
476 1 0.586355 0.697984 0.0896501
593 1 0.584149 0.788005 0.101073
491 1 0.493932 0.784926 0.0896908
475 1 0.689495 0.609324 0.0901881
574 1 0.696963 0.690714 0.100459
495 1 0.694966 0.785565 0.0907559
480 1 0.788367 0.689066 0.0909833
597 1 0.78592 0.787079 0.100075
464 1 0.991322 0.688621 0.0891953
578 1 0.893146 0.698312 0.0990317
499 1 0.889933 0.797081 0.0895928
581 1 0.00173229 0.820066 0.0981406
582 1 0.107555 0.900103 0.0999798
488 1 0.177659 0.91329 0.0901501
484 1 0.0062485 0.909659 0.0890481
407 1 0.29225 0.983863 0.0899679
586 1 0.289673 0.881019 0.0992013
509 1 0.399916 0.993532 0.0999154
492 1 0.394867 0.881656 0.09005
411 1 0.492402 0.982409 0.0890581
590 1 0.484258 0.881855 0.0993011
513 1 0.58124 0.986084 0.0994691
496 1 0.587358 0.893723 0.0896962
517 1 0.78929 0.981876 0.100221
415 1 0.693051 0.995307 0.0898448
594 1 0.692257 0.895452 0.100134
500 1 0.787775 0.881873 0.0901507
501 1 0.981372 0.975221 0.10183
419 1 0.904325 0.994265 0.0920072
598 1 0.888153 0.889116 0.099674
602 1 0.117842 0.0919675 0.119335
523 1 0.0902504 0.193034 0.109384
508 1 0.206791 0.0848907 0.110447
606 1 0.293265 0.0936167 0.12056
625 1 0.209982 0.186058 0.11996
512 1 0.395015 0.0870295 0.11086
527 1 0.320257 0.196066 0.111327
610 1 0.521763 0.106594 0.121745
531 1 0.473034 0.199222 0.109644
511 1 0.512414 0.00225612 0.111616
516 1 0.588568 0.115776 0.110188
614 1 0.676001 0.0838094 0.120807
520 1 0.777387 0.0925111 0.110327
633 1 0.606336 0.199875 0.120306
535 1 0.701032 0.193391 0.110883
637 1 0.796955 0.18267 0.120827
515 1 0.669905 1.1098e-05 0.107674
504 1 0.994347 0.091498 0.10975
618 1 0.901306 0.0877264 0.120396
539 1 0.879157 0.171806 0.108535
519 1 0.887242 0.00263414 0.109661
621 1 0.978063 0.189674 0.118767
622 1 0.0865634 0.276414 0.118372
528 1 0.19515 0.266962 0.109946
645 1 0.166895 0.380966 0.118076
543 1 0.0829423 0.386449 0.108414
641 1 0.00237326 0.383802 0.118677
626 1 0.298866 0.30616 0.119674
532 1 0.397774 0.302462 0.109522
547 1 0.298596 0.392875 0.110353
629 1 0.406362 0.201336 0.121323
630 1 0.503501 0.282646 0.119219
649 1 0.406573 0.390355 0.11964
551 1 0.496992 0.389162 0.10939
536 1 0.600449 0.307129 0.110559
634 1 0.702472 0.286037 0.122556
653 1 0.601483 0.391603 0.12146
540 1 0.793998 0.285479 0.109524
657 1 0.793921 0.38519 0.120091
524 1 0.985276 0.284811 0.108628
638 1 0.891313 0.294638 0.119568
559 1 0.885638 0.39265 0.109221
642 1 0.0928365 0.49935 0.119058
563 1 0.086621 0.594074 0.109909
548 1 0.184015 0.490363 0.107823
665 1 0.190138 0.590029 0.118454
646 1 0.279614 0.498715 0.119476
669 1 0.382274 0.579512 0.119677
552 1 0.386031 0.495394 0.109564
567 1 0.287793 0.593184 0.109881
650 1 0.497487 0.48461 0.120017
571 1 0.492162 0.581544 0.110091
556 1 0.59161 0.505909 0.110693
555 1 0.698364 0.401764 0.108813
654 1 0.697495 0.480792 0.11954
560 1 0.79118 0.495708 0.108609
673 1 0.601523 0.59959 0.121296
575 1 0.699877 0.581062 0.110488
677 1 0.798183 0.590925 0.119635
544 1 0.983613 0.48516 0.109271
658 1 0.886971 0.487399 0.119314
661 1 0.983317 0.57334 0.12174
579 1 0.897278 0.596074 0.110241
662 1 0.103292 0.684678 0.120628
568 1 0.185761 0.685963 0.10893
685 1 0.192825 0.780115 0.120264
666 1 0.293144 0.690414 0.119798
572 1 0.38908 0.687079 0.108179
689 1 0.382 0.782922 0.119629
587 1 0.300637 0.794499 0.10964
670 1 0.489096 0.670704 0.119867
591 1 0.5038 0.782336 0.111196
693 1 0.595263 0.7833 0.11937
576 1 0.604945 0.67678 0.109387
674 1 0.693494 0.692603 0.120488
580 1 0.790821 0.687189 0.109222
595 1 0.69458 0.786742 0.109142
697 1 0.790022 0.780229 0.119623
681 1 0.9907 0.784289 0.119215
564 1 0.985785 0.690397 0.109186
678 1 0.901644 0.687053 0.119916
599 1 0.901381 0.799195 0.109358
503 1 0.0832607 0.998072 0.110185
583 1 0.0958807 0.80031 0.109549
682 1 0.0935421 0.895602 0.120851
507 1 0.308469 0.990078 0.111123
605 1 0.202819 0.977349 0.119696
588 1 0.202994 0.896559 0.108987
686 1 0.285626 0.886807 0.119391
592 1 0.397557 0.897074 0.110312
609 1 0.404448 0.999746 0.120382
690 1 0.49098 0.88998 0.120103
596 1 0.597113 0.884234 0.110527
613 1 0.609599 0.971507 0.120651
617 1 0.77711 0.999195 0.122096
694 1 0.697595 0.880209 0.11972
600 1 0.797089 0.887477 0.109637
601 1 0.982454 0.972184 0.11888
584 1 0.992228 0.876371 0.110718
698 1 0.891257 0.884211 0.120803
604 1 0.00898452 0.0869333 0.129017
623 1 0.107293 0.185166 0.129736
702 1 0.0992939 0.0607191 0.139614
608 1 0.201029 0.0752651 0.129729
706 1 0.305055 0.073459 0.138443
725 1 0.2139 0.163385 0.138767
627 1 0.306122 0.1947 0.130518
612 1 0.412311 0.0843931 0.130081
631 1 0.512783 0.190872 0.130717
710 1 0.500475 0.0854994 0.139098
616 1 0.597575 0.0864697 0.131092
729 1 0.405038 0.182784 0.13867
635 1 0.698704 0.184781 0.130459
737 1 0.793235 0.18921 0.140024
620 1 0.800698 0.0872669 0.130562
639 1 0.899306 0.185621 0.129495
718 1 0.893806 0.0901223 0.139124
643 1 0.10398 0.375342 0.129122
624 1 0.000584462 0.275695 0.128545
722 1 0.119147 0.275799 0.138765
741 1 0.0136284 0.380362 0.138835
745 1 0.19724 0.391728 0.139739
628 1 0.205332 0.282277 0.128345
632 1 0.382065 0.308893 0.129245
647 1 0.288141 0.398747 0.12895
749 1 0.396138 0.383282 0.140074
730 1 0.491961 0.291972 0.139928
636 1 0.593081 0.290533 0.130706
753 1 0.598184 0.395992 0.137754
651 1 0.497131 0.382283 0.130046
734 1 0.699133 0.28864 0.139546
640 1 0.798795 0.274071 0.131083
655 1 0.701323 0.393612 0.130359
659 1 0.894039 0.369793 0.130874
663 1 0.0956501 0.587292 0.129082
644 1 0.00157802 0.475308 0.129337
648 1 0.184082 0.485727 0.128459
765 1 0.19287 0.578004 0.139275
742 1 0.0999234 0.47677 0.139135
761 1 0.0162396 0.58454 0.140113
667 1 0.301687 0.576742 0.13141
652 1 0.392331 0.483985 0.128798
769 1 0.39323 0.581628 0.140029
746 1 0.30191 0.473548 0.138978
750 1 0.491464 0.46674 0.13878
656 1 0.592668 0.499471 0.130013
671 1 0.493179 0.592479 0.128734
754 1 0.696386 0.479803 0.139931
660 1 0.799726 0.466289 0.130796
773 1 0.612271 0.579946 0.139708
675 1 0.699763 0.591817 0.130312
679 1 0.886824 0.588005 0.129715
758 1 0.904995 0.484466 0.139346
683 1 0.093051 0.790434 0.130011
664 1 0.00513836 0.687436 0.13104
668 1 0.198205 0.67669 0.130258
789 1 0.387903 0.78186 0.138553
672 1 0.391406 0.675993 0.130782
687 1 0.288321 0.78397 0.12981
770 1 0.49251 0.671208 0.139691
691 1 0.47665 0.783773 0.130278
676 1 0.595583 0.702582 0.129432
793 1 0.589565 0.77115 0.13985
695 1 0.705357 0.78466 0.12981
797 1 0.797034 0.781625 0.140146
781 1 0.992961 0.794877 0.140136
680 1 0.80751 0.690682 0.130644
699 1 0.894922 0.779686 0.130531
778 1 0.909846 0.681609 0.139545
603 1 0.101477 0.981844 0.129274
782 1 0.087112 0.886045 0.138954
688 1 0.197227 0.884847 0.129066
607 1 0.297485 0.98501 0.128263
705 1 0.200862 0.963972 0.138525
786 1 0.303046 0.881879 0.13935
692 1 0.390634 0.888731 0.128273
713 1 0.588621 0.97554 0.139395
611 1 0.514821 0.987809 0.128767
790 1 0.491872 0.888457 0.138986
709 1 0.415748 0.98673 0.13976
696 1 0.582561 0.875151 0.129963
615 1 0.692251 0.982003 0.130835
794 1 0.693766 0.88137 0.138945
700 1 0.795781 0.887246 0.130481
684 1 0.987157 0.885599 0.129159
701 1 0.99065 0.986936 0.139319
619 1 0.895097 0.998806 0.128669
798 1 0.893081 0.888048 0.13943
704 1 0.0072764 0.0834308 0.150044
708 1 0.195212 0.082752 0.148593
721 1 0.00411028 0.193863 0.140579
723 1 0.0978835 0.178152 0.149292
727 1 0.283083 0.184134 0.148983
712 1 0.390901 0.0931516 0.149014
733 1 0.596868 0.180179 0.140722
731 1 0.498604 0.190354 0.149723
716 1 0.589252 0.0994196 0.150196
714 1 0.704414 0.0780941 0.142019
735 1 0.692714 0.193454 0.148875
720 1 0.814798 0.0831785 0.149862
739 1 0.90766 0.17677 0.149579
743 1 0.0928668 0.396892 0.150507
728 1 0.179262 0.284065 0.151135
724 1 0.00608923 0.293455 0.148564
726 1 0.269353 0.281599 0.140971
732 1 0.379984 0.279817 0.147914
747 1 0.280743 0.382484 0.14925
849 1 0.395919 0.361298 0.15745
751 1 0.50095 0.377375 0.148897
736 1 0.605656 0.30009 0.149695
755 1 0.700402 0.396719 0.150486
738 1 0.887779 0.275719 0.140433
757 1 0.800261 0.377469 0.140552
740 1 0.80466 0.287483 0.150295
759 1 0.901873 0.392101 0.149571
748 1 0.191674 0.484669 0.149622
763 1 0.106631 0.586566 0.150101
767 1 0.292372 0.567899 0.148716
752 1 0.398164 0.476788 0.148351
771 1 0.503277 0.571155 0.148599
756 1 0.593714 0.465341 0.148277
777 1 0.795783 0.581377 0.140458
760 1 0.798273 0.481202 0.150705
775 1 0.687831 0.575079 0.149656
744 1 0.998333 0.486109 0.149046
779 1 0.897334 0.588866 0.148289
762 1 0.100496 0.691455 0.141526
785 1 0.19445 0.780784 0.140395
783 1 0.0805598 0.791543 0.150837
766 1 0.292438 0.674576 0.140455
768 1 0.208037 0.679335 0.149438
772 1 0.39481 0.666254 0.149742
787 1 0.303327 0.779963 0.149803
776 1 0.598171 0.677885 0.149864
791 1 0.483722 0.779523 0.148746
774 1 0.711005 0.683121 0.140718
780 1 0.79888 0.682127 0.149511
795 1 0.697588 0.783385 0.149723
874 1 0.695639 0.67797 0.157721
764 1 0.991788 0.694174 0.150153
799 1 0.886537 0.792542 0.150608
703 1 0.105307 0.973924 0.150739
707 1 0.290059 0.986891 0.148783
788 1 0.201684 0.88585 0.149753
792 1 0.389658 0.898636 0.149596
711 1 0.505477 0.980708 0.149785
796 1 0.591366 0.883929 0.148311
717 1 0.789879 0.975774 0.140807
715 1 0.693672 0.978018 0.151148
800 1 0.79135 0.883749 0.150124
784 1 0.993794 0.887407 0.149525
719 1 0.883562 0.981904 0.150577
802 1 0.0839551 0.0832152 0.159595
825 1 0.181128 0.189559 0.160195
823 1 0.0909661 0.173287 0.171157
808 1 0.201182 0.0826142 0.168302
806 1 0.294362 0.0892111 0.159779
829 1 0.388786 0.184044 0.159208
812 1 0.38675 0.0704724 0.169415
827 1 0.300035 0.177578 0.170272
810 1 0.496382 0.0891417 0.159167
816 1 0.592087 0.0883244 0.169699
831 1 0.487433 0.179191 0.168945
833 1 0.59686 0.19161 0.160976
814 1 0.684582 0.0851734 0.159023
835 1 0.692554 0.190785 0.169659
820 1 0.77733 0.0832849 0.170752
837 1 0.791821 0.191263 0.158079
804 1 0.984816 0.0896015 0.170571
821 1 0.996897 0.189491 0.160257
818 1 0.909081 0.081977 0.16035
839 1 0.886645 0.177513 0.169277
822 1 0.0962221 0.30136 0.160241
824 1 0.00389206 0.275864 0.170296
828 1 0.191604 0.272216 0.170096
845 1 0.19953 0.373885 0.159937
826 1 0.292301 0.270969 0.159711
832 1 0.386937 0.281607 0.169124
847 1 0.312071 0.381539 0.167755
830 1 0.497744 0.279272 0.159588
836 1 0.570714 0.297984 0.169973
853 1 0.589057 0.380077 0.160989
851 1 0.479754 0.390805 0.169517
834 1 0.689574 0.291718 0.160123
855 1 0.686197 0.398582 0.16928
840 1 0.800826 0.29675 0.170825
838 1 0.894628 0.279223 0.160488
859 1 0.90498 0.396844 0.169745
841 1 0.997779 0.392362 0.159887
857 1 0.812457 0.392193 0.159227
843 1 0.0986997 0.400693 0.169878
842 1 0.088883 0.497265 0.15933
848 1 0.208645 0.485706 0.167527
846 1 0.306666 0.477299 0.159297
852 1 0.387705 0.485409 0.168457
865 1 0.204971 0.587991 0.159071
867 1 0.295419 0.587915 0.168762
850 1 0.486958 0.471582 0.159055
856 1 0.580927 0.485767 0.17049
869 1 0.401624 0.571582 0.158421
871 1 0.475112 0.591166 0.169868
873 1 0.584459 0.5789 0.159333
854 1 0.706452 0.491592 0.159749
875 1 0.696327 0.594457 0.168856
877 1 0.793792 0.587104 0.15924
844 1 0.990598 0.491352 0.169004
860 1 0.808617 0.482994 0.169671
858 1 0.89986 0.47828 0.158903
861 1 0.986183 0.585154 0.158836
879 1 0.893847 0.580223 0.167627
863 1 0.103375 0.60197 0.169343
862 1 0.0972395 0.684501 0.159436
864 1 2.50203e-05 0.69252 0.168169
883 1 0.0984964 0.783984 0.170792
885 1 0.18664 0.7742 0.159257
868 1 0.210281 0.676597 0.169013
866 1 0.305341 0.676582 0.159278
887 1 0.288811 0.784329 0.167954
872 1 0.38922 0.683996 0.168823
889 1 0.395996 0.773422 0.158754
870 1 0.482814 0.672558 0.159285
891 1 0.482943 0.784675 0.169336
876 1 0.579429 0.684878 0.169093
893 1 0.597199 0.772599 0.159048
880 1 0.786159 0.687616 0.170403
895 1 0.681574 0.781808 0.168727
897 1 0.794993 0.780413 0.159037
881 1 0.995994 0.789746 0.160635
878 1 0.899438 0.684876 0.15873
899 1 0.894352 0.771528 0.168645
803 1 0.082185 0.985546 0.169678
882 1 0.112884 0.880575 0.158657
884 1 0.00447346 0.881335 0.170935
805 1 0.198065 0.988463 0.159952
807 1 0.294618 0.983614 0.168485
888 1 0.203877 0.890824 0.169646
886 1 0.283162 0.894466 0.158184
892 1 0.379507 0.878009 0.16757
809 1 0.407499 0.98181 0.159495
813 1 0.596016 0.98796 0.160429
811 1 0.495464 0.991275 0.169992
890 1 0.494093 0.879831 0.158183
896 1 0.589771 0.865961 0.168953
815 1 0.690322 0.984863 0.16994
894 1 0.691065 0.876796 0.158675
900 1 0.782864 0.883966 0.167881
817 1 0.802658 0.996357 0.161231
801 1 0.985572 0.986413 0.160056
819 1 0.896209 0.979971 0.17016
898 1 0.889319 0.878327 0.159709
902 1 0.0756987 0.0888903 0.179941
908 1 0.184071 0.0750644 0.188291
923 1 0.094409 0.187438 0.190524
906 1 0.290224 0.0721898 0.180358
925 1 0.202297 0.18563 0.179796
912 1 0.393311 0.0883425 0.19135
927 1 0.301142 0.179882 0.188376
929 1 0.395552 0.171659 0.180658
910 1 0.484948 0.0777366 0.179067
916 1 0.588767 0.0753112 0.189028
931 1 0.477453 0.176803 0.191344
933 1 0.581635 0.195166 0.178455
914 1 0.695285 0.091474 0.180613
920 1 0.794712 0.0850072 0.190114
935 1 0.681503 0.193958 0.188913
937 1 0.79544 0.193451 0.179367
904 1 0.975058 0.081857 0.190796
918 1 0.895705 0.0861588 0.180134
921 1 0.989027 0.182896 0.181736
939 1 0.883911 0.180684 0.189549
922 1 0.104351 0.291859 0.178782
928 1 0.197847 0.278228 0.188891
943 1 0.105825 0.398332 0.187547
926 1 0.288273 0.283034 0.179856
932 1 0.390651 0.279369 0.19114
945 1 0.205718 0.391497 0.178389
947 1 0.289662 0.388722 0.187865