LAMMPS data file via write_data, version 29 Sep 2021, timestep = 25000

5000 atoms
1 atom types

0 8.01800070356872 xlo xhi
0 8.01800070356872 ylo yhi
0 80.1800070356872 zlo zhi

Masses

1 1

Pair Coeffs # lj/cut

1 1 1

Atoms # atomic

23 1 0.8162972709049577 1.575053073611153 0.8072372110778885 0 0 0
8 1 1.747664043837397 0.804116976013194 0.7413821636086363 0 0 0
12 1 3.17976154327922 0.7719221589794922 0.6959215138362423 0 0 0
6 1 2.4724840691132184 0.8548061588222239 0.04380047933092612 0 0 0
9 1 3.1573510508075358 0.02561021883198933 0.06974851549510674 0 0 0
31 1 3.936223575652664 1.524465935330991 0.6595672913394494 0 0 0
13 1 4.781486644463312 0.05852138558947395 0.038903153911974186 0 0 0
16 1 4.870838412466856 0.6224110251798887 0.7912960372798167 0 0 0
20 1 6.341248899490586 0.647972076800937 0.7902345881344653 0 0 0
35 1 5.515147711706702 1.4030436064162939 0.9038108876733946 0 0 0
4 1 7.888593359893896 0.6978605665245308 0.7637827243329052 -1 0 0
39 1 7.142706213816345 1.4449684634154745 0.6874616228878244 0 0 0
43 1 0.7963309061525269 3.146418854076286 0.6844289820002276 0 0 0
28 1 1.5760943066224025 2.3375939835591963 0.6682347142519081 0 0 0
24 1 0.0212177914472004 2.4011208075449293 0.845316703314109 0 0 0
45 1 1.5580029651427882 3.128088337730217 0.04878926033909181 0 0 0
27 1 2.4489797730250764 1.6308994009097193 0.7756444750243862 0 0 0
32 1 3.1452696853241124 2.3839313470760577 0.7230925048602072 0 0 0
51 1 3.926220070860659 3.16176957875934 0.9277450673097783 0 0 0
36 1 4.83086119557133 2.2229679150920947 0.6786040211734157 0 0 0
40 1 6.271202127781573 2.1580774707062083 0.8610929264079704 0 0 0
55 1 5.69144705500074 3.1176541156212543 0.6974418836811797 0 0 0
41 1 7.895299571675387 3.1047981067362085 0.1065766218176 -1 0 0
59 1 7.0547943202218875 2.9306177590872147 0.7191987716935697 0 0 0
48 1 1.600928648012217 3.9724993260084385 0.7166053424389115 0 0 0
47 1 2.3856366429109768 3.2579237195054476 0.7142408288776442 0 0 0
52 1 3.114315070419726 4.026402631441817 0.6607537067566678 0 0 0
67 1 2.325320065662533 4.68494795789787 0.8330398972601377 0 0 0
69 1 3.012679091470819 4.707869412369399 0.03168491573615029 0 0 0
56 1 4.740476974325748 3.866805482005388 0.6980094860779072 0 0 0
71 1 3.900117153794852 4.693997322147328 0.5831369603214813 0 0 0
73 1 4.909055306618705 4.679697511656368 0.010952064231817351 0 0 0
77 1 6.177301837326767 4.488512588045324 0.030851035554405826 0 0 0
60 1 6.425385063377468 3.8846741566751226 0.9090431594285825 0 0 0
44 1 7.812007552848183 3.9389106600376333 0.7682592696895866 -1 0 0
79 1 7.0786820069290695 4.607088056376394 0.6260744204573482 0 0 0
63 1 0.8929054806967524 4.835250524620912 0.6983768672004333 0 0 0
68 1 1.5474780705273972 5.529390012326641 0.5038095326814699 0 0 0
64 1 0.09538791697882289 5.453084370002674 0.7666583909672824 0 0 0
72 1 2.990949251332735 5.551853005961364 0.8292894131836596 0 0 0
76 1 4.6175352789373 5.510532303668498 0.654490944866404 0 0 0
170 1 3.9111642187501805 5.525654396907639 1.4027365631078974 0 0 0
193 1 4.682123911908687 6.260611929199648 1.2734408225170077 0 0 0
75 1 5.467383165631589 4.911577906938365 0.7746100713067038 0 0 0
95 1 5.614892807892117 6.214147091887167 0.7253452317864643 0 0 0
80 1 6.46489071920389 5.462365227122908 0.5715250950062651 0 0 0
99 1 7.206816935454088 6.297784547390239 0.6718186141026785 0 0 0
3 1 0.7757807197339711 7.88443933030789 0.8076712707016491 0 -1 0
83 1 0.7180185726130924 6.4277092178883555 0.7832178979103255 0 0 0
88 1 1.600333110124785 7.098413821657191 0.6973826276468583 0 0 0
5 1 1.5310815546147893 7.946015513904852 0.057880801371053336 0 -1 0
7 1 2.4669657058117687 8.00738188708865 0.7961035792505818 0 -1 0
87 1 2.3732821197823912 6.428850308422228 0.6863059067531879 0 0 0
92 1 3.0470486536053416 7.140712230760065 0.8009004324168867 0 0 0
105 1 1.6641429510960413 7.923236269437206 1.3990364398792021 0 -1 0
86 1 2.4205750435535585 7.213202910908857 0.0035585151235437706 0 0 0
11 1 4.000535730635597 7.940657951146478 0.6852818992819252 0 -1 0
91 1 3.8583542853827537 6.418833558767317 0.6491971409041747 0 0 0
96 1 4.62764397417755 7.138591615752669 0.680848483427413 0 0 0
15 1 5.560427564433238 7.759241413928761 0.6931473394496809 0 -1 0
194 1 5.601723171940424 6.987601024723699 1.3666874267608604 0 0 0
19 1 7.215412629349417 7.841799542957747 0.8406666999037381 0 -1 0
84 1 7.948444278744035 7.178774997510191 0.7557937503045129 -1 0 0
100 1 6.425360730903158 7.102849988825382 0.7536739762833705 0 0 0
102 1 0.9073477536859269 0.6932466277365843 1.5198769127537977 0 0 0
104 1 0.1281180083911866 0.7077211186272605 2.2472180581172587 0 0 0
123 1 0.852381080564962 1.4520287795474915 2.333143410654073 0 0 0
108 1 1.7594913731252921 0.7656348565692195 2.3322860499348756 0 0 0
106 1 2.4723519326293264 0.7163325638323731 1.54340737141298 0 0 0
112 1 3.1718204074059217 0.6182875473498135 2.353961208004477 0 0 0
127 1 2.518978686992531 1.4732791111290537 2.2510950836361254 0 0 0
110 1 3.8830116777829464 0.588275469634759 1.5544548585205924 0 0 0
116 1 4.778967905304273 0.6549362206986941 2.221540222122536 0 0 0
129 1 3.2455168969893378 1.590787665970132 1.5073274581725258 0 0 0
131 1 3.866428104007464 1.4561371500758336 2.2538674638937737 0 0 0
133 1 4.605688274717246 1.3618197005529569 1.4796965731669756 0 0 0
114 1 5.63944353659834 0.5560295038101597 1.5002577183949675 0 0 0
120 1 6.413048800258828 0.6073663069871834 2.4019748016121505 0 0 0
135 1 5.65935287752601 1.3262676759388623 2.2496926229991963 0 0 0
121 1 7.969957178238559 1.525694520823947 1.4173364338158365 -1 0 0
118 1 7.247883009403798 0.7665039298526289 1.6052012638763418 0 0 0
137 1 6.452779371159331 1.3128862025316717 1.525514271131082 0 0 0
139 1 7.052066351340599 1.4480629255167887 2.464892996380823 0 0 0
122 1 0.7008585762688737 2.2861167201815835 1.7152506817218978 0 0 0
143 1 0.5622915818652269 3.170055382506794 2.2896850961962985 0 0 0
145 1 1.4483915292882719 3.003597421545631 1.6562812443042028 0 0 0
128 1 1.7180241145234654 2.254483827128069 2.305890262482683 0 0 0
125 1 1.6706677017103753 1.6634965215544901 1.4959422230868287 0 0 0
126 1 2.4501748003887824 2.4086471434779533 1.4517293164766913 0 0 0
147 1 2.367579407000685 3.0994417648642667 2.4429249470420498 0 0 0
130 1 4.065290359324018 2.320622556689185 1.4188491026656072 0 0 0
132 1 3.2594116711608243 2.2800255704525134 2.3062930956334604 0 0 0
136 1 4.713256510823249 2.441078978242135 2.280668711554698 0 0 0
151 1 3.957407287343251 3.1684369827498977 2.237604499552737 0 0 0
134 1 5.45835055719112 2.2106170662409066 1.5687768690858062 0 0 0
140 1 6.329492431689594 2.262819006100853 2.17547358784913 0 0 0
153 1 4.94242856566739 3.171479597060472 1.487612492573845 0 0 0
155 1 5.657887241842771 3.1710326014913757 2.2598173457028503 0 0 0
124 1 7.931460412557924 2.241783557351009 2.463537484137057 -1 0 0
138 1 7.170536964912018 2.2408048828496994 1.4360449427478945 0 0 0
141 1 7.874676432496684 3.178733388057846 1.5021475979179346 -1 0 0
159 1 7.253906023644272 3.028452557915163 2.3165461867296835 0 0 0
157 1 6.517637285820166 3.08491796317264 1.5716185117941475 0 0 0
142 1 0.6651899902578742 3.9192199605610725 1.504197862204373 0 0 0
163 1 0.7339812602087402 4.755551344665109 2.327466410702336 0 0 0
165 1 1.371976692487281 4.651375337396494 1.5904274540496286 0 0 0
161 1 0.058848375408812714 4.7641872607384945 1.5331429617904457 0 0 0
148 1 1.6063666808429888 3.8623662936089302 2.285621902760403 0 0 0
146 1 2.4039335953406 3.733714350290913 1.526963439823016 0 0 0
149 1 3.1776676951865763 3.2187684415835816 1.59253770420584 0 0 0
167 1 2.294322941329373 4.7477277422206186 2.334236624245761 0 0 0
150 1 3.9017779295882358 4.021429326225967 1.5693194557774441 0 0 0
152 1 3.286503962909026 3.949513669451081 2.4910144793202122 0 0 0
171 1 4.084724035450317 4.6720312595108195 2.3824674781363564 0 0 0
173 1 4.646389006262389 4.726028961769268 1.568098883725208 0 0 0
156 1 4.848343010967313 3.795248747993456 2.3703793394945047 0 0 0
154 1 5.534029180702058 4.006915016493943 1.4956747759726858 0 0 0
160 1 6.230309161196087 4.0217813103850375 2.249139989922754 0 0 0
175 1 5.455803567735184 4.674068583227829 2.387385468572786 0 0 0
144 1 7.878374638691841 4.068801346253122 2.4523497490276105 -1 0 0
158 1 7.111094355470721 4.022802295578371 1.6069005100341438 0 0 0
162 1 0.8814253125719406 5.626707648362909 1.525273840612587 0 0 0
168 1 1.4743030113556534 5.6147240363745246 2.4457529781665146 0 0 0
164 1 0.05834341029245671 5.5150317239662625 2.341825622305041 0 0 0
183 1 0.7569977728652584 6.2800409171052305 2.3199761199629787 0 0 0
166 1 2.011166042230136 5.376532479277651 1.5439832569977536 0 0 0
172 1 3.1993300416282517 5.5893532728342645 2.3877975674029086 0 0 0
169 1 3.0352902794121097 4.840118691679196 1.579421986798805 0 0 0
187 1 2.259456999188779 6.257856248906976 2.3707039415300084 0 0 0
189 1 3.1135106419106116 6.3348670019590525 1.479304526316295 0 0 0
176 1 4.691481116193191 5.61182228933798 2.3117305069431873 0 0 0
191 1 3.9246868191806947 6.341817287611947 2.202907371420463 0 0 0
174 1 5.448542649201449 5.524122203015407 1.654922934405639 0 0 0
177 1 6.2800998517402 4.8305266504362745 1.5101121266442923 0 0 0
180 1 6.371553460736035 5.4333745956513715 2.4560154999282773 0 0 0
197 1 6.330957866179638 6.167582952570034 1.527738774949234 0 0 0
195 1 5.423345320698191 6.294301440000996 2.3798330629427102 0 0 0
179 1 7.2062263975121885 4.820352828004336 2.3625847040186803 0 0 0
178 1 7.208291424582011 5.302930030886162 1.4212017557837622 0 0 0
181 1 7.867366953607462 6.060161017273945 1.523275530258503 -1 0 0
199 1 7.075986385340665 6.198966570814967 2.2929506633322774 0 0 0
103 1 0.7800070206676556 7.974792749279388 2.284761356598 0 -1 0
185 1 1.5494004028629123 6.4358440529967735 1.5093566019930558 0 0 0
182 1 0.7929067765847301 7.027270891515946 1.6309571437408381 0 0 0
188 1 1.5572221985367525 7.1326258394184245 2.4120134681956316 0 0 0
107 1 2.4746313703169993 7.913115614066906 2.4474365161883695 0 -1 0
186 1 2.4106911493127297 7.1721523573449435 1.6556862778368713 0 0 0
192 1 3.165171727130116 7.1142332001234925 2.268613423886006 0 0 0
109 1 3.246178151500857 7.885247786306187 1.5440491606915763 0 -1 0
111 1 3.871229608270579 7.861309561179044 2.35734220655678 0 -1 0
113 1 4.77487721026256 7.854012258906798 1.5485839777018535 0 -1 0
190 1 3.970127636497339 7.146345558039258 1.5160620628936001 0 0 0
196 1 4.691943315974395 7.11400397312048 2.3220622332121237 0 0 0
115 1 5.432166544305605 7.848835738132025 2.361110812816417 0 -1 0
200 1 6.403644631685958 7.124305681527464 2.3038201389767257 0 0 0
117 1 6.465313598253636 7.851002272381014 1.577045662399076 0 -1 0
119 1 7.088745310111974 7.8907542758516 2.5415658085803687 0 -1 0
101 1 8.016803195661161 7.896004674408091 1.6352025004645883 -1 -1 0
184 1 7.907200763878346 7.140857801814152 2.3214058382078786 -1 0 0
198 1 7.216438125010781 7.044940094788748 1.5060320300353536 0 0 0
202 1 0.7972319165243913 0.7362256517991633 3.1346493848700816 0 0 0
208 1 1.3955016978505415 0.6321595118606389 3.9558897826599693 0 0 0
204 1 0.037216761178518354 0.6534177084438836 4.04071445443345 0 0 0
223 1 0.8016068450110307 1.5576683524199482 3.8781363295054394 0 0 0
225 1 1.586709000829568 1.4649537878317782 3.0342188126833896 0 0 0
221 1 0.0016847546254681236 1.3390213059690712 3.0268997613055473 0 0 0
206 1 2.3144100343285943 0.6253738078893477 3.272649966301126 0 0 0
227 1 2.245915544380993 1.5267679240920504 3.8025843137482584 0 0 0
229 1 3.2010379809565297 1.4655326491928913 3.1543923086960923 0 0 0
212 1 3.207459653098752 0.5932179182576486 3.9034947053612066 0 0 0
210 1 3.9579149828386724 0.6073684332014699 3.0334783118789073 0 0 0
216 1 4.727592405282305 0.6870525047290907 3.851200916050683 0 0 0
231 1 3.8580567968302453 1.4399405222529207 3.9165155694303473 0 0 0
233 1 4.579506412414771 1.4638790341883736 3.058009950863019 0 0 0
214 1 5.5713011142142825 0.8255507662713178 3.228138448300055 0 0 0
237 1 6.388952883804318 1.5000357578554795 3.192590741943341 0 0 0
220 1 6.41526221019618 0.8644313555465091 3.9991587493060767 0 0 0
218 1 7.20621208941773 0.7818409746536374 3.2284099462250997 0 0 0
239 1 7.435322162323762 1.502521195413606 3.9253493480935804 0 0 0
222 1 0.8482667831460905 2.320627836954069 2.841095440450762 0 0 0
224 1 0.009965057045704238 2.4364339278251834 3.794276136947072 0 0 0
228 1 1.5424166451403498 2.4265166987279336 3.750997798477515 0 0 0
243 1 0.7780743090385561 3.123839596911936 3.7605276307453233 0 0 0
245 1 1.4925165884714378 3.1359702202685757 2.9340331395578785 0 0 0
226 1 2.3526172161109558 2.264553330328742 3.0209336562444635 0 0 0
232 1 3.0921214164372937 2.2379791246912686 3.880970118676302 0 0 0
247 1 2.3951196113697115 2.9675293924773234 3.9915788859390453 0 0 0
249 1 3.173770725651959 3.0265134647354093 3.0221460517863106 0 0 0
230 1 3.891472450460388 2.2914225629654865 3.1278016885074615 0 0 0
236 1 4.646129134942352 2.288895034465388 3.933415859502668 0 0 0
251 1 3.967018567634746 3.063466954650534 3.972070822432931 0 0 0
235 1 5.455788418647242 1.6487553549993423 3.7857762193085227 0 0 0
234 1 5.546679770848874 2.26276032861436 2.9338100228725 0 0 0
240 1 6.328266649247094 2.237838351726763 3.8915496153064635 0 0 0
257 1 6.332752146195363 3.097861311232315 3.1969103129399454 0 0 0
255 1 5.523536013201561 2.9222478756632024 4.004539225395149 0 0 0
253 1 4.838841742679218 3.014822620535094 3.1657006515130277 0 0 0
238 1 7.138016796902513 2.335122530944009 3.1539497207291713 0 0 0
259 1 7.285045061387683 3.058710291465387 3.9189780299993093 0 0 0
242 1 0.7382210668840062 3.9128863334769384 3.1475144510021735 0 0 0
248 1 1.5359296872827541 3.840057202312219 4.0858063024270015 0 0 0
244 1 0.025479476486786022 3.7698015823211737 4.033701950287463 0 0 0
263 1 0.8384627813494768 4.63921202904387 3.9004957107539604 0 0 0
265 1 1.5657124255210817 4.676139374751035 2.9935934940043882 0 0 0
246 1 2.3096867647641908 3.9272006129179355 3.130592817211879 0 0 0
269 1 3.066148954240174 4.790171165783189 3.134802255802024 0 0 0
267 1 2.128017704207452 4.679115691723571 3.7812308666522885 0 0 0
252 1 3.1818735174013546 3.94318480107192 3.988633055668231 0 0 0
250 1 4.018227986969112 3.7754487737512434 3.2571467238053895 0 0 0
271 1 3.9789919967035563 4.758435131042908 4.090297971306006 0 0 0
273 1 4.623253212595719 4.675387420655626 3.23621269823595 0 0 0
256 1 4.827863617129599 3.825107459917723 3.95596508998747 0 0 0
254 1 5.667726829252038 3.856811794013989 3.2045579408042206 0 0 0
275 1 5.519239581617603 4.674316866401005 3.9494622784767457 0 0 0
260 1 6.427875544339303 3.735077223837856 3.969449497189858 0 0 0
241 1 7.9248542521520795 3.309402884438591 3.1849519639467343 -1 0 0
258 1 7.051363789407792 3.989996892887303 2.966082798682273 0 0 0
277 1 6.441251899210303 4.734380877143386 3.2579598216390298 0 0 0
279 1 7.2723417698379205 4.648618357862368 4.067662030036071 0 0 0
262 1 0.8441683947648032 5.510720793798997 3.2540723805909337 0 0 0
264 1 0.04778245700623529 5.460115962139437 4.011302814986993 0 0 0
283 1 0.6952530972197861 6.3243546657017715 3.9527735999175553 0 0 0
268 1 1.5366392709670353 5.65054876343626 3.945379621721674 0 0 0
285 1 1.4253643082122611 6.350221451009117 3.1806527015965758 0 0 0
266 1 2.2164970641963384 5.580746259318463 3.2511667482336954 0 0 0
287 1 2.4171880456009 6.32807816455483 3.967760766842269 0 0 0
272 1 3.223970649651927 5.667617931690062 3.840888764444002 0 0 0
270 1 3.9668590206413894 5.631300684519479 3.1133052770022656 0 0 0
276 1 4.767309041644247 5.440500774987231 4.107989396037064 0 0 0
291 1 3.960744020690889 6.388147455667108 3.9544898328164066 0 0 0
293 1 4.717669047843953 6.330561047158554 3.1367717912577517 0 0 0
274 1 5.376235622856766 5.5142542495813895 3.0517952477856434 0 0 0
280 1 6.277750605009419 5.493070333159218 3.979100690132675 0 0 0
295 1 5.482629186396424 6.201104300001555 3.820474280600778 0 0 0
261 1 8.00272547108365 4.880479502001323 3.1740472518206713 -1 0 0
278 1 7.112244718688729 5.467549477738455 3.3066630171479603 0 0 0
297 1 6.418261707710452 6.227711570496727 3.1669737907376723 0 0 0
299 1 7.0310674111418 6.373254314001263 4.002806624668045 0 0 0
281 1 7.813672414543713 6.25010763552952 3.245220122169012 -1 0 0
203 1 0.5803252578738044 7.865058112423352 3.8101632374324765 0 -1 0
205 1 1.5149403726514235 7.886953394105169 3.1959479471641616 0 -1 0
282 1 0.6588840013530249 7.167522456260279 3.155799771332269 0 0 0
288 1 1.5484263225991113 7.104593239168068 3.909005876509082 0 0 0
209 1 3.2011702730989295 7.900499309653211 3.167198081018691 0 -1 0
207 1 2.417339782636763 7.93227458734868 3.979483926993039 0 -1 0
286 1 2.361522474970224 7.12999022309648 3.1746049524910345 0 0 0
292 1 3.134074405859126 7.076706396884052 3.913319406438457 0 0 0
289 1 3.196667777617193 6.423495722530621 2.9721849228311474 0 0 0
211 1 3.862455372411854 7.816709079957813 4.0051419646780255 0 -1 0
290 1 4.013808463367434 7.150945128071016 3.233194136609319 0 0 0
296 1 4.799333537480647 7.0054775099329865 4.003655896223571 0 0 0
213 1 4.8161711908734555 7.851033021396416 3.136740307763962 0 -1 0
215 1 5.518358601815057 7.825749286642582 4.002004550160007 0 -1 0
217 1 6.212490176063461 7.825693089224686 3.1125160528433864 0 -1 0
294 1 5.632964336423408 6.980972712646097 3.103599813714448 0 0 0
300 1 6.3249420192505115 7.207559578173656 4.072910518368157 0 0 0
201 1 7.888969413884285 7.96651167427969 3.0854799589902884 -1 -1 0
219 1 7.123125065647157 7.901183309430888 3.965410564886739 0 -1 0
284 1 7.89801473302649 7.096638913010285 4.003601070265834 -1 0 0
298 1 7.118755338791508 7.040031040887416 3.1983045244446866 0 0 0
302 1 0.7730880181879206 0.7814838385673881 4.771662947851053 0 0 0
308 1 1.49977555249572 0.5973162196033637 5.513246443688041 0 0 0
321 1 0.09174414814714105 1.5374786792609587 4.857358621979187 0 0 0
325 1 1.5744481857203592 1.4900615271577824 4.825829437201451 0 0 0
306 1 2.3553641056215997 0.7307002710199958 4.737867120429478 0 0 0
312 1 3.1584789553877406 0.7219832897498996 5.519198172163035 0 0 0
329 1 3.042420144089624 1.4424465283325778 4.798396595277436 0 0 0
310 1 3.9901266186783992 0.6602286477826956 4.654528251810399 0 0 0
331 1 4.137054879085417 1.3869039899544822 5.417160578579996 0 0 0
314 1 5.678719443679728 0.6596999717978729 4.721390420413314 0 0 0
333 1 4.8371761462764145 1.5946124335861556 4.664459853072665 0 0 0
335 1 5.664795051679531 1.4820143845590301 5.550831565359295 0 0 0
320 1 6.533475151244002 0.7699931625883829 5.560620772355953 0 0 0
318 1 7.249358894048713 0.7249421473698331 4.759082036419661 0 0 0
339 1 7.348256579074529 1.445612264456572 5.539938136411112 0 0 0
337 1 6.480765150593672 1.5718680081475194 4.804776256288662 0 0 0
319 1 7.322279830254517 0.04621005418810014 5.593662180343816 0 0 0
322 1 0.7344340756211326 2.2447511740524324 4.616036182834418 0 0 0
345 1 1.533036916165701 3.0388811004864476 4.820322371825105 0 0 0
324 1 0.08443717764767493 2.226158081422287 5.592453670065871 0 0 0
341 1 0.04198959469408949 3.016172530075568 4.6951421804617 0 0 0
328 1 1.3965788405697999 2.3150888913411514 5.534543563077874 0 0 0
326 1 2.2481435751721492 2.1534104681295156 4.685165796034288 0 0 0
327 1 2.3902185054158527 1.6556609046995963 5.588271864988952 0 0 0
347 1 2.3371652026273484 3.151462970596678 5.567440581953332 0 0 0
330 1 4.099561711846891 2.293256581421765 4.6539059110225836 0 0 0
351 1 4.011293235455908 3.0589112143945996 5.358932795673213 0 0 0
332 1 3.300026226313199 2.1964777660780905 5.383782511326273 0 0 0
336 1 4.801176082065156 2.3296313017815073 5.556359085607592 0 0 0
334 1 5.607649388679318 2.2851431133574325 4.771894623957309 0 0 0
355 1 5.624825269150729 3.063260816772759 5.6133137085404075 0 0 0
353 1 4.87927312218459 2.98726296233438 4.786627012550531 0 0 0
340 1 6.360974897096852 2.3010837580816523 5.4769146111376745 0 0 0
338 1 7.276907747505818 2.270743480928946 4.746587086746497 0 0 0
357 1 6.47582165674291 2.943689316407328 4.666641354121044 0 0 0
342 1 0.7018329489697204 3.8397670833828133 4.7820018584282 0 0 0
361 1 0.06975249995335787 4.674001355938822 4.676610809881208 0 0 0
363 1 0.8070516271325784 4.69388804944302 5.485935793022237 0 0 0
343 1 0.7730555378002091 3.2368501047391467 5.602114570627505 0 0 0
346 1 2.33670206915748 3.9770378887318887 4.731562291368324 0 0 0
349 1 3.165521097101558 3.2333709274808613 4.7704697477517914 0 0 0
369 1 3.0071923549403103 4.657759542869807 4.64434671014392 0 0 0
365 1 1.6246335901844455 4.761358503595766 4.808439670738031 0 0 0
348 1 1.6514014949692644 4.051599850731283 5.5851451100919745 0 0 0
350 1 4.054665503077119 3.826301233574152 4.7155694846793 0 0 0
352 1 3.2810785985870403 4.063794527020284 5.503156780009221 0 0 0
356 1 4.78930139145378 3.767269144698682 5.5228488443067745 0 0 0
373 1 4.789810886621761 4.600543044773971 4.783263788365502 0 0 0
371 1 4.0779546791760195 4.783411016004653 5.422055374767087 0 0 0
354 1 5.725254743342141 3.824453961347375 4.835158974001991 0 0 0
375 1 5.6974989137748375 4.669982229209047 5.5850658177573935 0 0 0
377 1 6.398194899375891 4.674958259798287 4.6855171400210045 0 0 0
358 1 7.29757687798541 3.7692578128645824 4.740910850748118 0 0 0
379 1 7.309634784146704 4.654923479101957 5.306849028060791 0 0 0
362 1 0.7718869043044231 5.559443712846025 4.631587203318913 0 0 0
368 1 1.5599806729265662 5.4201711019878305 5.601821590112864 0 0 0
385 1 1.4977938981533794 6.347004076226916 4.7351742137152995 0 0 0
366 1 2.3397821676999757 5.4853344700646165 4.673916618654125 0 0 0
372 1 3.125775189385388 5.542412307076908 5.44338703713356 0 0 0
389 1 3.1632540957942386 6.376710049286726 4.6021489890368645 0 0 0
387 1 2.3054571075889996 6.295592592360511 5.320047429287617 0 0 0
370 1 3.93081438274986 5.618139384260151 4.774623476200893 0 0 0
393 1 4.6400121394388085 6.298203624054923 4.747813339617993 0 0 0
391 1 4.036171358757969 6.301943062684403 5.611135729225041 0 0 0
376 1 4.829801692216619 5.44833660726003 5.523932981701814 0 0 0
374 1 5.5884607520754965 5.368920549414524 4.795804137018212 0 0 0
380 1 6.353756083685944 5.441361867882921 5.502749768065759 0 0 0
397 1 6.283700082760305 6.248499207260234 4.7334063130232975 0 0 0
395 1 5.6233367016623115 6.169454445729801 5.518717968129182 0 0 0
378 1 7.148565855902596 5.580371596498432 4.6486380616104395 0 0 0
381 1 7.887655317801457 6.3352422554690095 4.850722572865193 -1 0 0
399 1 7.108020247746448 6.173681922667881 5.545695250363628 0 0 0
364 1 7.943503287806952 5.425190117305983 5.576795737032734 -1 0 0
305 1 1.5356111174446827 7.880297188169145 4.642084977591794 0 -1 0
301 1 0.02228803103304422 7.969714182227165 4.784596383588203 0 -1 0
303 1 0.7162716099718773 7.982650478428422 5.5619051026113615 0 -1 0
383 1 0.640166996534702 6.458717457522315 5.508233055272875 0 0 0
382 1 0.6814695221466028 7.124773876649285 4.672382012024048 0 0 0
388 1 1.4965842623856083 7.158802670623964 5.597337479364228 0 0 0
307 1 2.3332476002574034 8.004017330153696 5.4472716583385505 0 -1 0
309 1 3.145203756432275 8.016455515261327 4.752884853351118 0 -1 0
386 1 2.3029564509417484 7.163497463938469 4.737842749630397 0 0 0
392 1 3.0663875738738446 7.075087272183076 5.545913973544504 0 0 0
311 1 4.040348584852654 8.017253762562442 5.531617595709474 0 -1 0
390 1 4.036682886257567 7.126784812487933 4.760963524871559 0 0 0
313 1 4.863215649511866 7.9844974265975415 4.9259899231025015 0 -1 0
396 1 4.916217619824319 7.145337327001919 5.519932428575253 0 0 0
394 1 5.596020092999974 6.982109614132274 4.754472573750523 0 0 0
315 1 5.749355822360619 7.8991831218961 5.55715242927067 0 -1 0
317 1 6.512823852900205 7.923746239402839 4.805818096235616 0 -1 0
384 1 7.8787102933846755 7.2136370022766725 5.56593670574067 -1 0 0
398 1 7.197396426748579 7.026421075314317 4.738173179867697 0 0 0
400 1 6.4859068696507105 6.981919603825234 5.498143840704984 0 0 0
402 1 0.9158815109743377 0.7660782605248673 6.432055222301271 0 0 0
304 1 0.08765088871796839 0.7191836821716956 5.656198333776627 0 0 0
323 1 0.8744172001950461 1.4798760911441307 5.728289876408853 0 0 0
421 1 0.1568770511539603 1.4485856228452647 6.403371290511503 0 0 0
406 1 2.2275852266125282 0.7370061612417428 6.244968777299047 0 0 0
429 1 3.124498179759959 1.437382079519921 6.249728993653479 0 0 0
410 1 3.9151470529243997 0.8055437942186516 6.362284262312575 0 0 0
433 1 4.74493794603787 1.5716216765368174 6.352300879354243 0 0 0
416 1 4.722745626276994 0.5826084210343749 7.000708605119076 0 0 0
316 1 4.811883900129301 0.7035996453294406 5.711007244875798 0 0 0
414 1 5.635102090259478 0.6753848264308582 6.444661128102712 0 0 0
437 1 6.319247709315678 1.5697908109570322 6.465118705369242 0 0 0
418 1 7.168992752005138 0.7447844131315734 6.425999757806588 0 0 0
417 1 6.457057545566391 0.02411445458510464 6.452610351785708 0 0 0
422 1 0.7775502476072937 2.2232471093443067 6.464939999751764 0 0 0
441 1 0.03613947092462233 3.05374103057284 6.3140967996854025 0 0 0
425 1 1.7125118376401671 1.6501127515777114 6.6014698761853365 0 0 0
426 1 2.5707058252973622 2.342641570761476 6.386756362229369 0 0 0
445 1 1.7153321531975432 2.9606953494635655 6.3896336283126365 0 0 0
430 1 3.876381801356687 2.2945592948491105 6.293199123709485 0 0 0
453 1 4.579367591644991 3.090965538904523 6.344921377265974 0 0 0
449 1 3.2686947071555243 3.1206460518896226 6.422029047074822 0 0 0
434 1 5.641457441017843 2.4173089986082994 6.382220572228541 0 0 0
438 1 7.336189894855367 2.126882386488574 6.461390780908198 0 0 0
457 1 6.52274249595039 3.1403429822181192 6.51721096213849 0 0 0
359 1 7.261020920042601 2.8504719236214 5.629389002394346 0 0 0
344 1 0.007931383137947279 3.953265551969102 5.63083938431008 0 0 0
442 1 0.8809416356039534 3.7529807106061397 6.4982542635953395 0 0 0
465 1 1.521706186918997 4.743482055912244 6.330824386611444 0 0 0
461 1 0.05496104834581692 4.67320193585907 6.410449586410201 0 0 0
367 1 2.4625104108451605 4.7860019069916895 5.678775470259724 0 0 0
446 1 2.4965765859928473 3.8265365599666983 6.321387730207061 0 0 0
469 1 3.0926465303939468 4.729894549776526 6.433665887808992 0 0 0
450 1 3.934978010864917 3.960114872737569 6.271564649974779 0 0 0
454 1 5.49181755034655 3.803822792313521 6.391635090527637 0 0 0
477 1 6.393069530135529 4.633189296832044 6.345382571834013 0 0 0
473 1 4.845525724831927 4.675782474310113 6.145108437475196 0 0 0
475 1 5.575106832659599 4.591597593972725 7.000474182863633 0 0 0
360 1 6.547691088449151 3.7713267054272794 5.666494572932845 0 0 0
458 1 7.242753587254035 3.8861855336362336 6.394528497878101 0 0 0
462 1 0.8619961873099892 5.735218286094968 6.284622916443573 0 0 0
485 1 1.6247984349355853 6.332658139945752 6.313183751859993 0 0 0
466 1 2.362086720129007 5.616579626874402 6.2728913567009785 0 0 0
470 1 3.9509451765946286 5.344238161593935 6.296302271892909 0 0 0
489 1 3.2256087145437564 6.23481120268564 6.306151749660606 0 0 0
474 1 5.586557317721073 5.407739465310527 6.360583684719301 0 0 0
493 1 4.8549264553692835 6.283094627551216 6.271816846675086 0 0 0
497 1 6.177750535568317 6.207370241628149 6.366356685669438 0 0 0
481 1 7.884117921702643 6.318227466654053 6.431484903018446 -1 0 0
478 1 7.174651334596429 5.383135895361737 6.28830132338477 0 0 0
405 1 1.5453219385857035 7.949178858720267 6.35415773937086 0 -1 0
482 1 0.7361803954479719 7.100990009138949 6.5788285533975985 0 0 0
409 1 3.125520873390481 7.916912899788949 6.2567201799211185 0 -1 0
486 1 2.3113258094220495 7.258106616870994 6.2217040937262675 0 0 0
492 1 3.16347534477894 7.029333313155749 6.984186868589826 0 0 0
413 1 4.7416420343588355 7.809418865836906 6.289273225938018 0 -1 0
490 1 3.9934691533721645 7.162520209798302 6.24398675693151 0 0 0
496 1 4.697517979644006 6.960348512991843 6.979984625025146 0 0 0
494 1 5.6528830292716234 7.044018989042601 6.221933023352889 0 0 0
500 1 6.253436494118381 7.260139568954219 7.030631151608745 0 0 0
401 1 8.004414792273412 7.955314883336996 6.422174546237846 -1 -1 0
498 1 7.105447704469767 7.233721885009643 6.430915079733778 0 0 0
404 1 0.020046858280355906 0.6773645190658073 7.154108497603436 0 0 0
403 1 0.7249967039445884 0.004755570878455018 7.144485416030036 0 0 0
502 1 0.7754671093792423 0.7449930277130976 8.042457357090536 0 0 0
423 1 0.8745044518591853 1.420536918817416 7.2858733550903665 0 0 0
521 1 0.043690924795731334 1.4816981847826283 7.863095207226495 0 0 0
408 1 1.6061697950173257 0.5959572231202762 7.133398817295662 0 0 0
525 1 1.6603315001508596 1.4630904959762199 8.060223692619932 0 0 0
506 1 2.543113162158892 0.7296625007699827 8.051748878085746 0 0 0
412 1 3.172366835801204 0.8120558046326027 7.238537035713631 0 0 0
427 1 2.5486719097102926 1.5883975834737807 7.2688135861492835 0 0 0
510 1 4.1472217898316766 0.7059317571791369 7.863693611503015 0 0 0
529 1 3.2236153696621392 1.4959448904780162 8.123376719266401 0 0 0
431 1 3.890779941962757 1.6012070511384715 7.11522592208917 0 0 0
514 1 5.258005457054286 0.5874734427834781 7.90094039894632 0 0 0
435 1 5.538544223174917 1.538338049428075 7.164022426612204 0 0 0
537 1 6.413064402493641 1.5224585847676118 8.03669591743784 0 0 0
533 1 4.8691275449848455 1.5530855349813175 7.875588227600686 0 0 0
501 1 7.99054946837311 0.16154637052779286 8.143826456724996 -1 0 0
420 1 6.432304347537781 0.7810741063532222 7.212065790188229 0 0 0
518 1 7.118765057026186 0.7795950383980372 8.038305528878052 0 0 0
439 1 7.188824590678594 1.5785437972401677 7.329637744330018 0 0 0
522 1 0.7082807147950814 2.2843655679607355 8.115147814878144 0 0 0
428 1 1.506027429808684 2.3138392769551466 7.4372287594744755 0 0 0
443 1 0.7051578575806114 3.0782966819350843 7.282305957870663 0 0 0
545 1 1.5577152760852488 3.0119440472902483 8.112242178802132 0 0 0
526 1 2.4791819634211145 2.2737519088894973 8.121267847940945 0 0 0
447 1 2.457384048536943 3.0994609005241753 7.155783820987388 0 0 0