LAMMPS (29 Sep 2021 - Update 2)
# 3d Lennard-Jones melt
pair_style	lj/cut 2.5
atom_style	atomic
read_data "lj.rho0.96999999999999997335.T01.3999999999999999112.data"
Reading data file ...
  orthogonal box = (0.0000000 0.0000000 0.0000000) to (8.0180007 8.0180007 80.180007)
  1 by 1 by 1 MPI processor grid
  reading atoms ...
  5000 atoms
  reading velocities ...
  5000 velocities
  read_data CPU = 0.038 seconds

neighbor	0.3 bin
neigh_modify	every 20 delay 0 check no

dump		traj all custom 1000 dump.data id x y z
fix		1 all nve
thermo		1000
run		200000
Neighbor list info ...
  update every 20 steps, delay 0 steps, check no
  max neighbors/atom: 2000, page size: 100000
  master list distance cutoff = 2.8
  ghost atom cutoff = 2.8
  binsize = 1.4, bins = 6 6 58
  1 neighbor lists, perpetual/occasional/extra = 1 0 0
  (1) pair lj/cut, perpetual
      attributes: half, newton on
      pair build: half/bin/atomonly/newton
      stencil: half/bin/3d
      bin: standard
Per MPI rank memory allocation (min/avg/max) = 5.290 | 5.290 | 5.290 Mbytes
Step Temp E_pair E_mol TotEng Press 
       0    1.3159125   -6.0092165            0   -4.0357426    5.9511466 
    1000    1.2944253   -5.9786561            0   -4.0374064    6.0846686 
    2000    1.2974539   -5.9858866            0    -4.040095    6.0480947 
    3000    1.2892825   -5.9752243            0   -4.0416873    6.0851321 
    4000    1.3069055   -6.0041546            0   -4.0441884    5.9705826 
    5000    1.3003103   -5.9962793            0    -4.046204    6.0141299 
    6000    1.3127634   -6.0177331            0   -4.0489818    5.8998361 
    7000    1.3111378   -6.0173367            0   -4.0510234    5.8969374 
    8000    1.3060986   -6.0118345            0   -4.0530784    5.9247886 
    9000    1.2982187   -6.0018197            0   -4.0548811    5.9637258 
   10000    1.2954356   -6.0002466            0   -4.0574818    5.9642145 
   11000    1.2942576   -6.0004431            0   -4.0594449    5.9594911 
   12000    1.2966351   -6.0065251            0   -4.0619614    5.9295033 
   13000     1.309491   -6.0273274            0   -4.0634838    5.8417212 
   14000    1.2862004   -5.9944523            0   -4.0655375    6.0114323 
   15000    1.2907897   -6.0042199            0   -4.0684225    5.9507251 
   16000    1.2945675   -6.0118822            0   -4.0704194    5.9230295 
   17000    1.2752392   -5.9850157            0   -4.0725395    6.0336699 
   18000    1.2844738   -6.0011239            0   -4.0747985    5.9598706 
   19000    1.2833328   -6.0008424            0   -4.0762282    5.9644376 
   20000    1.2877644   -6.0101588            0   -4.0788985     5.920644 
   21000    1.2952221   -6.0239719            0   -4.0815273    5.8466086 
   22000    1.2869231   -6.0136722            0   -4.0836736       5.8966 
   23000    1.2989981   -6.0331856            0   -4.0850781    5.8085795 
   24000    1.2821303   -6.0101866            0   -4.0873758    5.9105874 
   25000    1.2692568   -5.9922353            0   -4.0887309    5.9792211 
   26000    1.2756791   -6.0040862            0   -4.0909503    5.9193178 
   27000    1.2958709   -6.0366777            0   -4.0932601    5.7688123 
   28000     1.254597   -5.9768239            0   -4.0953047    6.1006011 
   29000    1.2696458   -6.0012708            0   -4.0971831    5.9880259 
   30000    1.2711735   -6.0047086            0   -4.0983297     5.983563 
   31000     1.253246   -5.9803985            0   -4.1009056    6.0955661 
   32000    1.2436639   -5.9671024            0   -4.1019796     6.161272 
   33000    1.2074867   -5.9143417            0   -4.1034739    6.3861523 
   34000    1.2323873   -5.9532029            0   -4.1049916    6.2367247 
   35000    1.2386508   -5.9644041            0   -4.1067996    6.2086572 
   36000    1.2500305   -5.9834473            0   -4.1087765    6.0872079 
   37000    1.2209842   -5.9408185            0   -4.1097085    6.3274171 
   38000    1.1905356   -5.8968902            0    -4.111444     6.506607 
   39000      1.20399   -5.9179614            0   -4.1123375    6.4117352 
   40000    1.1928096   -5.9031616            0    -4.114305    6.4931488 
   41000    1.1914614    -5.903033            0   -4.1161983    6.4873362 
   42000    1.1995371   -5.9163569            0   -4.1174111    6.4351326 
   43000    1.1861386   -5.8974951            0   -4.1186431    6.5280593 
   44000    1.1982128   -5.9165615            0   -4.1196018    6.4430875 
   45000    1.1806502   -5.8919809            0   -4.1213598    6.5524622 
   46000    1.1839069   -5.8980743            0   -4.1225691     6.534396 
   47000    1.1943574   -5.9155497            0   -4.1243719    6.4614301 
   48000    1.1883938   -5.9068643            0   -4.1246301    6.4902287 
   49000    1.1780194   -5.8925587            0   -4.1258829    6.5436337 
   50000    1.1791787   -5.8961703            0    -4.127756    6.5450562 
   51000    1.1569635   -5.8626011            0    -4.127503    6.6696111 
   52000    1.1581888   -5.8664187            0   -4.1294829    6.6815011 
   53000    1.1638687   -5.8757291            0   -4.1302753    6.6183889 
   54000    1.1464739   -5.8513654            0   -4.1319985    6.7629183 
   55000     1.166135    -5.881546            0   -4.1326933    6.6042188 
   56000    1.1498012   -5.8586329            0    -4.134276    6.7143677 
   57000    1.1536451   -5.8644418            0   -4.1343202    6.6779919 
   58000    1.1316471   -5.8328757            0   -4.1357445    6.8192088 
   59000    1.1454828   -5.8556738            0   -4.1377931    6.7480335 
   60000    1.1364907   -5.8426132            0   -4.1382181    6.7946539 
   61000    1.1248781   -5.8265186            0    -4.139539    6.8768138 
   62000    1.1269531   -5.8308648            0   -4.1407732    6.8203263 
   63000    1.1340409   -5.8424285            0   -4.1417074    6.7896338 
   64000    1.1385464   -5.8504674            0   -4.1429893    6.7391513 
   65000    1.1383555   -5.8511086            0   -4.1439169    6.7617669 
   66000    1.1481367   -5.8667713            0   -4.1449107    6.6748909 
   67000     1.135461   -5.8488131            0   -4.1459622    6.7580758 
   68000     1.138875   -5.8555615            0   -4.1475907    6.7396564 
   69000    1.1349985   -5.8504929            0   -4.1483356    6.7550905 
   70000     1.143268     -5.86264            0    -4.148081    6.7062049 
   71000    1.1305313   -5.8451972            0   -4.1497395    6.7846236 
   72000    1.1275905   -5.8422726            0   -4.1512251    6.7921186 
   73000    1.1268023   -5.8422214            0    -4.152356    6.7940421 
   74000    1.1145562   -5.8246561            0   -4.1531562    6.9174311 
   75000    1.1243441   -5.8404996            0   -4.1543208    6.8001194 
   76000    1.1246513   -5.8423865            0   -4.1557469    6.8053871 
   77000    1.1267314   -5.8456786            0   -4.1559196    6.7500589 
   78000     1.126772    -5.846531            0    -4.156711    6.7720169 
   79000    1.1244694   -5.8441561            0   -4.1577893    6.7687794 
   80000    1.1205808    -5.839636            0    -4.159101    6.8016582 
   81000    1.1205846   -5.8409182            0   -4.1603774    6.7872202 
   82000    1.1479903   -5.8828475            0   -4.1612064    6.5637192 
   83000    1.1126379   -5.8320417            0   -4.1634187    6.8398279 
   84000    1.1385593   -5.8713562            0   -4.1638588    6.6320448 
   85000    1.1152067   -5.8377279            0   -4.1652524     6.825557 
   86000    1.1384138   -5.8730284            0   -4.1657493    6.6587164 
   87000    1.1412271   -5.8786659            0   -4.1671677    6.5988399 
   88000    1.1350238   -5.8694098            0   -4.1672146    6.6806637 
   89000    1.1149712   -5.8406933            0   -4.1685709    6.7949204 
   90000    1.1353823   -5.8730671            0   -4.1703342    6.6354448 
   91000    1.1256291   -5.8589923            0   -4.1708863    6.7083461 
   92000    1.1257595   -5.8603585            0   -4.1720571    6.7004677 
   93000    1.1229591   -5.8570379            0   -4.1729362    6.6897546 
   94000    1.1217752   -5.8564257            0   -4.1740995    6.7021041 
   95000    1.1038893   -5.8301753            0   -4.1746725    6.8435139 
   96000    1.1085175   -5.8380435            0   -4.1755999    6.7979527 
   97000    1.1203064   -5.8571104            0   -4.1769868    6.7028735 
   98000    1.1013727   -5.8294794            0   -4.1777507    6.8126647 
   99000    1.1260217   -5.8671517            0   -4.1784569    6.6604979 
  100000    1.1167299   -5.8547439            0   -4.1799841    6.6962157 
  101000    1.1279745    -5.872057            0   -4.1804335    6.6538338 
  102000    1.1078892   -5.8433123            0   -4.1818108    6.7558993 
  103000    1.1081672   -5.8441519            0   -4.1822336    6.7491475 
  104000     1.112972   -5.8534496            0   -4.1843255     6.741444 
  105000    1.1088903   -5.8476699            0   -4.1846672    6.7339066 
  106000    1.1217697   -5.8675094            0   -4.1851913    6.6568389 
  107000    1.0868949   -5.8161972            0    -4.186181    6.8850368 
  108000    1.1184829   -5.8648229            0   -4.1874341    6.6556799 
  109000    1.1095112   -5.8524548            0   -4.1885208     6.710021 
  110000    1.1152438   -5.8620804            0   -4.1895493    6.6848677 
  111000    1.1185761   -5.8677739            0   -4.1902453     6.650081 
  112000    1.0933517   -5.8308082            0   -4.1911087    6.8321847 
  113000    1.1167205   -5.8677194            0   -4.1929737    6.6717331 
  114000    1.1135022   -5.8627865            0   -4.1928672    6.6610827 
  115000    1.1130015   -5.8635574            0   -4.1943891    6.6906674 
  116000    1.1128741    -5.864007            0   -4.1950297    6.6698468 
  117000    1.1164269   -5.8708229            0   -4.1965175    6.6535783 
  118000    1.1259888   -5.8863377            0   -4.1976923     6.530684 
  119000    1.1198813   -5.8777427            0   -4.1982568    6.6178174 
  120000    1.0981706   -5.8462301            0   -4.1993037    6.7306672 
  121000    1.1121326   -5.8680873            0   -4.2002221    6.6481802 
  122000    1.1146283   -5.8730431            0    -4.201435    6.6362169 
  123000    1.1129673   -5.8706488            0   -4.2015318    6.6192831 
  124000     1.112506   -5.8717601            0   -4.2033349    6.6094555 
  125000    1.1090486   -5.8670678            0   -4.2038277    6.6492921 
  126000     1.120266   -5.8845259            0    -4.204463    6.5892686 
  127000    1.1005516    -5.855906            0   -4.2054087    6.7176774 
  128000    1.1056812   -5.8650708            0   -4.2068807    6.6740825 
  129000    1.1085557   -5.8709176            0   -4.2084167    6.6172997 
  130000    1.1159907    -5.882517            0   -4.2088658    6.5646821 
  131000    1.0977675   -5.8558527            0   -4.2095309    6.6913431 
  132000    1.1115496   -5.8772686            0   -4.2102777    6.5522608 
  133000    1.1048554   -5.8688043            0   -4.2118526    6.6258491 
  134000    1.1035696   -5.8675567            0   -4.2125334    6.6267641 
  135000    1.1154752   -5.8866363            0    -4.213758    6.5555235 
  136000      1.10873   -5.8776832            0   -4.2149208    6.5650913 
  137000    1.1018321   -5.8680498            0   -4.2156322    6.6310522 
  138000    1.1039539   -5.8719286            0    -4.216329    6.5984686 
  139000    1.0797003   -5.8360292            0   -4.2168026    6.7882751 
  140000    1.1140657   -5.8892274            0   -4.2184631    6.5177358 
  141000    1.1008491   -5.8702171            0   -4.2192737     6.617362 
  142000    1.0937415   -5.8607276            0   -4.2204435    6.6931324 
  143000    1.1349988   -5.9234974            0   -4.2213397    6.3881041 
  144000    1.1134239   -5.8924072            0   -4.2226054     6.534662 
  145000    1.1187864   -5.9014948            0   -4.2236508    6.4732711 
  146000    1.1175473   -5.9005511            0   -4.2245654    6.4624541 
  147000    1.1135761   -5.8954931            0    -4.225463    6.5232388 
  148000    1.1075633   -5.8870718            0   -4.2260591    6.5549237 
  149000    1.1207112   -5.9083496            0    -4.227619    6.4647947 
  150000    1.1123955   -5.8968528            0   -4.2285933    6.4821605 
  151000    1.1129567   -5.8990508            0   -4.2299497    6.4778285 
  152000     1.100559   -5.8817559            0   -4.2312475    6.5668331 
  153000    1.0962197   -5.8751809            0   -4.2311802    6.5608954 
  154000    1.1122738   -5.9007086            0   -4.2326316    6.4802742 
  155000    1.1093891   -5.8972956            0   -4.2335447    6.4818496 
  156000    1.0939927   -5.8747554            0   -4.2340945     6.607625 
  157000     1.116046   -5.9094197            0   -4.2356855      6.42822 
  158000    1.1110109   -5.9022562            0   -4.2360731    6.4580719 
  159000    1.1308226   -5.9327528            0   -4.2368582    6.3359162 
  160000    1.1166627   -5.9131298            0   -4.2384707    6.4119906 
  161000    1.1158088   -5.9134895            0    -4.240111    6.3959568 
  162000    1.1141267   -5.9111043            0   -4.2402484    6.4105201 
  163000    1.1159558   -5.9147045            0   -4.2411055    6.4257539 
  164000    1.1015969    -5.894741            0   -4.2426761    6.4783364 
  165000    1.1107504   -5.9096213            0    -4.243829    6.4427674 
  166000    1.1064014   -5.9037227            0   -4.2444524    6.4599272 
  167000    1.1181268   -5.9222903            0   -4.2454355    6.3801415 
  168000    1.1020002   -5.8994482            0   -4.2467785      6.46964 
  169000     1.119342    -5.926521            0   -4.2478439    6.3654835 
  170000    1.1184655   -5.9250828            0   -4.2477201    6.3402768 
  171000     1.101232   -5.9007109            0   -4.2491932    6.4686434 
  172000    1.1139204   -5.9203735            0    -4.249827     6.371104 
  173000    1.1163957   -5.9255326            0   -4.2512739    6.3468726 
  174000    1.1139924   -5.9223795            0   -4.2517251    6.3665268 
  175000    1.0998432   -5.9023396            0   -4.2529047    6.4387512 
  176000    1.1153898   -5.9266505            0   -4.2539004    6.3537291 
  177000    1.0964479    -5.899051            0   -4.2547081    6.4665576 
  178000    1.0940306   -5.8963694            0   -4.2556517    6.4915565 
  179000    1.1076974   -5.9177957            0    -4.256582    6.3737557 
  180000    1.0942566   -5.8982031            0   -4.2571464    6.4857359 
  181000    1.0983075   -5.9058563            0   -4.2587246    6.4143394 
  182000     1.096275   -5.9033058            0   -4.2592222    6.4535203 
  183000    1.0906394   -5.8956154            0   -4.2599834    6.5011877 
  184000    1.1035989   -5.9164875            0   -4.2614202    6.3701368 
  185000    1.1048576   -5.9184824            0   -4.2615274    6.3726598 
  186000    1.1008658   -5.9139701            0   -4.2630016    6.3944245 
  187000    1.0988545   -5.9123237            0   -4.2643716    6.4027808 
  188000    1.0921646   -5.9027585            0   -4.2648392    6.4642232 
  189000    1.1117117   -5.9329661            0   -4.2657321    6.2950266 
  190000     1.105819   -5.9252021            0   -4.2668053    6.3232596 
  191000    1.0810912   -5.8893768            0   -4.2680643    6.4735175 
  192000    1.1005895   -5.9193984            0   -4.2688444    6.3605948 
  193000    1.0950303   -5.9116246            0   -4.2694076     6.399583 
  194000      1.10497   -5.9280165            0    -4.270893    6.3138016 
  195000    1.0877082   -5.9027535            0   -4.2715175    6.4293927 
  196000    1.0836233   -5.8973115            0   -4.2722016    6.4706982 
  197000    1.0993049   -5.9218944            0   -4.2732667    6.3628944 
  198000    1.0946866   -5.9157454            0   -4.2740439    6.4041652 
  199000    1.1062544   -5.9345177            0   -4.2754681    6.2665935 
  200000    1.0892971   -5.9094378            0   -4.2758189    6.4083449 
