LAMMPS (29 Sep 2021 - Update 2)
# 3d Lennard-Jones melt
pair_style	lj/cut 2.5
atom_style	atomic
read_data "lj.rho0.96999999999999997335.T01.5.data"
Reading data file ...
  orthogonal box = (0.0000000 0.0000000 0.0000000) to (8.0180007 8.0180007 80.180007)
  1 by 1 by 1 MPI processor grid
  reading atoms ...
  5000 atoms
  reading velocities ...
  5000 velocities
  read_data CPU = 0.021 seconds

neighbor	0.3 bin
neigh_modify	every 20 delay 0 check no

dump		traj all custom 1000 dump.data id x y z
fix		1 all nve
thermo		1000
run		200000
Neighbor list info ...
  update every 20 steps, delay 0 steps, check no
  max neighbors/atom: 2000, page size: 100000
  master list distance cutoff = 2.8
  ghost atom cutoff = 2.8
  binsize = 1.4, bins = 6 6 58
  1 neighbor lists, perpetual/occasional/extra = 1 0 0
  (1) pair lj/cut, perpetual
      attributes: half, newton on
      pair build: half/bin/atomonly/newton
      stencil: half/bin/3d
      bin: standard
Per MPI rank memory allocation (min/avg/max) = 5.287 | 5.287 | 5.287 Mbytes
Step Temp E_pair E_mol TotEng Press 
       0    1.3038409   -5.7241904            0   -3.7688202    7.5225544 
    1000    1.3004496   -5.7214458            0   -3.7711614    7.5399366 
    2000    1.2693485   -5.6758528            0   -3.7722109    7.7409515 
    3000    1.2464276    -5.642682            0   -3.7734146    7.8899997 
    4000     1.247351   -5.6455647            0   -3.7749123    7.8944657 
    5000    1.2356375   -5.6293215            0   -3.7762359    7.9817084 
    6000    1.2453281   -5.6457349            0   -3.7781163     7.887259 
    7000    1.2371965   -5.6356737            0   -3.7802501    7.9416472 
    8000    1.2419608   -5.6435735            0   -3.7810049    7.9354176 
    9000    1.2480071   -5.6545542            0    -3.782918    7.8596526 
   10000    1.2321476   -5.6316809            0   -3.7838292    7.9780262 
   11000    1.2507237    -5.660927            0   -3.7852166    7.8260374 
   12000    1.2238268   -5.6223231            0   -3.7869501    7.9882411 
   13000    1.2223615   -5.6212518            0   -3.7880762      7.99189 
   14000    1.2270976   -5.6296408            0   -3.7893625    7.9500786 
   15000    1.2052477   -5.5989048            0   -3.7913948    8.0986181 
   16000    1.2056266   -5.6008941            0   -3.7928159    8.0732141 
   17000    1.2290655   -5.6373764            0   -3.7941468    7.9346914 
   18000    1.2209817    -5.626639            0   -3.7955327    7.9462357 
   19000    1.2191737   -5.6252125            0   -3.7968177    7.9675687 
   20000    1.2222867   -5.6324518            0   -3.7993885    7.9428092 
   21000    1.2079964   -5.6121597            0   -3.8005275    8.0351049 
   22000    1.2050088   -5.6090938            0   -3.8019421    8.0652395 
   23000    1.2311691   -5.6490176            0   -3.8026333     7.869262 
   24000     1.215295   -5.6264731            0   -3.8038951    7.9740148 
   25000    1.2139231   -5.6256662            0   -3.8051458    7.9544696 
   26000    1.2107747   -5.6229946            0   -3.8071958    7.9871964 
   27000     1.215397   -5.6312065            0   -3.8084757     7.943584 
   28000    1.1970908   -5.6046269            0   -3.8093498    8.0689982 
   29000    1.1971572   -5.6054523            0   -3.8100757      8.02103 
   30000    1.1879753   -5.5932727            0   -3.8116661    8.1055682 
   31000    1.1780905   -5.5802986            0   -3.8135163    8.1793495 
   32000    1.1886039   -5.5971674            0   -3.8146182    8.0758229 
   33000    1.1984623   -5.6133209            0    -3.815987    8.0146864 
   34000     1.189243   -5.6012836            0   -3.8177759    8.0531586 
   35000     1.200463    -5.619585            0   -3.8192506    7.9769195 
   36000     1.182979   -5.5948328            0   -3.8207192     8.095935 
   37000    1.1950423   -5.6144022            0   -3.8221972    8.0025338 
   38000    1.2014512   -5.6248983            0   -3.8230818     7.975066 
   39000    1.1943123    -5.615589            0   -3.8244789    8.0100305 
   40000    1.1836178   -5.6005275            0    -3.825456    8.0776656 
   41000    1.2065649   -5.6365245            0   -3.8270391    7.9106409 
   42000    1.1902983   -5.6130811            0   -3.8279907     8.019325 
   43000    1.1945577    -5.621013            0   -3.8295348    7.9753368 
   44000    1.2004678   -5.6319897            0   -3.8316481    7.8926381 
   45000     1.174272    -5.593629            0   -3.8325732    8.0897758 
   46000    1.1770867   -5.5986828            0   -3.8334058    8.0666099 
   47000    1.1988467   -5.6327744            0   -3.8348639    7.9059049 
   48000     1.182003   -5.6090171            0   -3.8363671    8.0263811 
   49000     1.179665   -5.6062394            0   -3.8370959    8.0178579 
   50000    1.1799006   -5.6085172            0   -3.8390203    8.0310258 
   51000    1.1809479   -5.6105865            0   -3.8395189    8.0181612 
   52000    1.1814853   -5.6125287            0   -3.8406552    7.9962741 
   53000    1.1802364   -5.6120509            0   -3.8420504    7.9988797 
   54000    1.1845218   -5.6202133            0    -3.843786    7.9760971 
   55000     1.187637   -5.6258909            0   -3.8447917    7.9490511 
   56000    1.1698285   -5.6003743            0   -3.8459826    8.0412811 
   57000    1.1874133   -5.6284925            0   -3.8477288    7.9176744 
   58000    1.1663244   -5.5977262            0   -3.8485896    8.0392073 
   59000    1.1757472   -5.6128171            0   -3.8495491    7.9605769 
   60000    1.1930706   -5.6404752            0   -3.8512272    7.8804423 
   61000    1.1665587   -5.6017334            0   -3.8522453    8.0445093 
   62000    1.1837748   -5.6291074            0   -3.8538004    7.9285908 
   63000    1.1800957   -5.6243682            0   -3.8545786    7.9255603 
   64000    1.1604406   -5.5966309            0   -3.8563181    8.0417723 
   65000    1.1698673   -5.6114616            0   -3.8570117    7.9665056 
   66000    1.1710265   -5.6152899            0   -3.8591014    7.9722558 
   67000    1.1624896   -5.6023612            0   -3.8589755    8.0050229 
   68000    1.1668162   -5.6108987            0   -3.8610245    7.9617908 
   69000    1.1656863   -5.6099481            0   -3.8617683    8.0026811 
   70000    1.1717879   -5.6204312            0   -3.8631009    7.9482075 
   71000    1.1795284   -5.6333359            0   -3.8643971    7.8764978 
   72000    1.1627065   -5.6090989            0    -3.865388    7.9857283 
   73000    1.1637918    -5.611949            0   -3.8666104    7.9951953 
   74000    1.1735755   -5.6288708            0   -3.8688596    7.9114213 
   75000    1.1832902   -5.6446576            0   -3.8700773    7.8337266 
   76000    1.1940822   -5.6622266            0   -3.8714615     7.754351 
   77000    1.1735675   -5.6326222            0    -3.872623    7.8731535 
   78000    1.1817539   -5.6465114            0   -3.8742351    7.8084041 
   79000    1.1651102   -5.6225692            0   -3.8752534    7.9117662 
   80000    1.1652094   -5.6236873            0   -3.8762228    7.9060666 
   81000     1.177872   -5.6440533            0   -3.8775986    7.8173364 
   82000    1.1658848   -5.6265838            0   -3.8781064    7.8953943 
   83000    1.1734225   -5.6396752            0   -3.8798935    7.8668151 
   84000    1.1705487   -5.6367254            0   -3.8812535    7.8602072 
   85000    1.1663945   -5.6319251            0   -3.8826832    7.8651718 
   86000     1.182877   -5.6576726            0   -3.8837119    7.7650308 
   87000    1.1539892   -5.6157849            0   -3.8851473     7.949759 
   88000    1.1603639   -5.6260209            0   -3.8858231    7.8839501 
   89000    1.1577829   -5.6235603            0   -3.8872333    7.9056037 
   90000    1.1690957   -5.6418235            0   -3.8885307    7.7997636 
   91000    1.1594197   -5.6283568            0    -3.889575    7.8795531 
   92000    1.1856975   -5.6686146            0    -3.890424    7.7023727 
   93000    1.1689589   -5.6454556            0    -3.892368    7.8045706 
   94000    1.1688749   -5.6466453            0   -3.8936836    7.7939754 
   95000    1.1636534   -5.6399883            0   -3.8948574    7.8562511 
   96000    1.1471556   -5.6163169            0   -3.8959276    7.9084231 
   97000    1.1757167   -5.6602165            0   -3.8969943    7.7457409 
   98000    1.1911358   -5.6841043            0   -3.8977579     7.646487 
   99000    1.1651008    -5.646507            0   -3.8992053    7.8039493 
  100000    1.1623245   -5.6440078            0   -3.9008697    7.8301377 
  101000    1.1545588   -5.6330896            0   -3.9015978    7.8447746 
  102000    1.1811939   -5.6742764            0   -3.9028399    7.6661982 
  103000     1.155102   -5.6369496            0   -3.9046431    7.8222031 
  104000    1.1731567    -5.665613            0   -3.9062299    7.6767642 
  105000    1.1775661   -5.6727026            0   -3.9067067    7.6963799 
  106000    1.1630821   -5.6519607            0   -3.9076864    7.7777798 
  107000    1.1554418   -5.6424336            0   -3.9096175    7.7968325 
  108000     1.164781   -5.6565799            0   -3.9097579    7.7550298 
  109000    1.1680558   -5.6622942            0   -3.9105609     7.744345 
  110000    1.1701891    -5.667756            0   -3.9128234    7.7332551 
  111000    1.1583886   -5.6518441            0   -3.9146087    7.7809879 
  112000    1.1667859   -5.6653601            0   -3.9155313    7.7140306 
  113000    1.1520459   -5.6440913            0    -3.916368    7.8284668 
  114000    1.1790753   -5.6861838            0   -3.9179245    7.6267282 
  115000    1.1769537   -5.6831897            0   -3.9181122    7.6588734 
  116000    1.1806157      -5.6912            0   -3.9206307    7.6219711 
  117000    1.1660597   -5.6697385            0   -3.9209987    7.7107902 
  118000    1.1775443    -5.688362            0   -3.9223988    7.6148537 
  119000    1.1757679    -5.687089            0   -3.9237899    7.6247694 
  120000    1.1634202   -5.6691171            0   -3.9243358    7.6728543 
  121000    1.1473551   -5.6460368            0   -3.9253484    7.8084569 
  122000    1.1727942   -5.6862748            0   -3.9274354    7.6103114 
  123000    1.1559426   -5.6613567            0   -3.9277895    7.7201549 
  124000    1.1620655   -5.6731621            0   -3.9304124       7.6795 
  125000    1.1522391   -5.6590289            0   -3.9310158    7.7498915 
  126000    1.1693749   -5.6860022            0   -3.9322906    7.5850945 
  127000    1.1539308     -5.66421            0     -3.93366    7.7022403 
  128000    1.1404087   -5.6445514            0   -3.9342804    7.8093525 
  129000    1.1495229   -5.6595437            0   -3.9356043    7.7244205 
  130000    1.1671044   -5.6883957            0   -3.9380892     7.609971 
  131000    1.1427537   -5.6517141            0   -3.9379264    7.7709771 
  132000    1.1720087   -5.6969967            0   -3.9393353    7.5926615 
  133000    1.1662194    -5.689228            0   -3.9402489    7.5924412 
  134000    1.1695876    -5.695701            0   -3.9416705    7.5593345 
  135000     1.167691   -5.6939187            0   -3.9427325    7.5706691 
  136000    1.1511896   -5.6701371            0   -3.9436982    7.6545337 
  137000    1.1526521   -5.6731727            0   -3.9445404    7.6868921 
  138000    1.1461177   -5.6653977            0    -3.946565    7.6932602 
  139000    1.1508002   -5.6737314            0   -3.9478764    7.6718128 
  140000    1.1579139   -5.6846882            0   -3.9481647    7.6169157 
  141000    1.1646804   -5.6969154            0   -3.9502442    7.5489659 
  142000    1.1533868   -5.6810818            0   -3.9513476    7.6056798 
  143000    1.1569994    -5.687222            0   -3.9520701    7.6054239 
  144000    1.1579927   -5.6902681            0   -3.9536264    7.5735065 
  145000    1.1723077    -5.713101            0   -3.9549912    7.4734985 
  146000    1.1536149   -5.6861065            0   -3.9560301    7.6014397 
  147000    1.1567572   -5.6913238            0    -3.956535     7.568584 
  148000    1.1536809   -5.6884102            0    -3.958235    7.5995026 
  149000    1.1591144   -5.6976842            0   -3.9593603    7.5512538 
  150000     1.183716   -5.7358247            0   -3.9606058    7.3794163 
  151000    1.1711129   -5.7176306            0   -3.9613126    7.4681182 
  152000    1.1645524   -5.7090552            0   -3.9625759    7.4964707 
  153000    1.1684681   -5.7171405            0   -3.9647889    7.4651884 
  154000    1.1731852   -5.7251828            0   -3.9657569    7.4340522 
  155000    1.1626975   -5.7104533            0   -3.9667559    7.4474493 
  156000    1.1617193   -5.7101159            0   -3.9678854    7.4929308 
  157000    1.1577817   -5.7058701            0   -3.9695449    7.5050286 
  158000    1.1500048   -5.6954864            0   -3.9708242    7.5656634 
  159000    1.1602769   -5.7125972            0     -3.97253    7.4552842 
  160000    1.1614718   -5.7152495            0   -3.9733901    7.4630193 
  161000    1.1582304   -5.7104915            0   -3.9734933    7.5042382 
  162000    1.1573899   -5.7113121            0   -3.9755745    7.4791563 
  163000    1.1416382   -5.6884396            0   -3.9763248     7.573107 
  164000    1.1567695   -5.7130016            0   -3.9781944    7.4681778 
  165000    1.1652085   -5.7267255            0   -3.9792623    7.4251245 
  166000    1.1541798   -5.7103785            0    -3.979455    7.4907047 
  167000    1.1507733    -5.706832            0   -3.9810172      7.49758 
  168000    1.1516294   -5.7089966            0    -3.981898    7.4874082 
  169000    1.1384848   -5.6900907            0    -3.982705    7.5729721 
  170000    1.1486204   -5.7065604            0   -3.9839745    7.4862095 
  171000    1.1446287   -5.7021266            0   -3.9855269    7.5055716 
  172000    1.1474791   -5.7082579            0   -3.9873834    7.4760752 
  173000    1.1397628    -5.697027            0   -3.9877246    7.5111998 
  174000    1.1412931    -5.700243            0   -3.9886458    7.5037713 
  175000    1.1638857   -5.7354559            0   -3.9899765    7.3640838 
  176000    1.1604038   -5.7310235            0   -3.9907659    7.3810668 
  177000    1.1719489   -5.7497053            0   -3.9921336      7.29219 
  178000    1.1521164   -5.7217734            0   -3.9939445    7.4329284 
  179000    1.1434317   -5.7096548            0   -3.9948503    7.4685243 
  180000    1.1669322   -5.7455915            0   -3.9955433    7.2978784 
  181000    1.1370081   -5.7012493            0   -3.9960783    7.5103016 
  182000    1.1584114   -5.7354811            0   -3.9982115     7.356967 
  183000    1.1490604   -5.7224378            0    -3.999192    7.4336354 
  184000    1.1540971   -5.7308902            0   -4.0000909    7.3692217 
  185000    1.1385753   -5.7088414            0   -4.0013201    7.4550494 
  186000    1.1530762   -5.7318842            0   -4.0026158     7.347486 
  187000    1.1491483   -5.7269705            0   -4.0035929    7.3725377 
  188000    1.1475778   -5.7252666            0   -4.0042441    7.3797634 
  189000    1.1326118   -5.7041106            0   -4.0055327    7.4942945 
  190000    1.1375555   -5.7129208            0   -4.0069289    7.4411309 
  191000     1.146901    -5.728061            0   -4.0080535     7.386742 
  192000    1.1419078   -5.7215199            0   -4.0090008    7.4096516 
  193000    1.1466119   -5.7295373            0   -4.0099635    7.3723078 
  194000    1.1429168   -5.7257239            0   -4.0116916    7.3719318 
  195000    1.1416298   -5.7243762            0    -4.012274    7.3574703 
  196000    1.1304709    -5.709083            0   -4.0137158    7.4449589 
  197000    1.1583555   -5.7512706            0   -4.0140848    7.2849767 
  198000    1.1628008   -5.7594568            0   -4.0156044    7.2346703 
  199000    1.1228733   -5.6999572            0   -4.0159841    7.4956262 
  200000    1.1547282   -5.7500125            0   -4.0182665    7.2908821
