LAMMPS (29 Sep 2021 - Update 2)
# 3d Lennard-Jones melt

variable        lj_density index 0.97
variable        lj_temp index 1.0

variable        iteration loop 10
log             log.melt.d${lj_density}.T${lj_temp}.txt
log             log.melt.d0.97.T${lj_temp}.txt
log             log.melt.d0.97.T1.0.txt
