
variable        mcmoves equal f_montecarlo[1]
variable        mcaccratio equal f_montecarlo[2]/(f_montecarlo[1]+1e-10)

thermo_style	custom step temp etotal press c_p_all v_mcmoves v_mcaccratio

thermo	200

run		${prodlength}
run		20000
WARNING: Fix gcmc is being applied to the default group all (../fix_gcmc.cpp:663)
Per MPI rank memory allocation (min/avg/max) = 2.636 | 2.636 | 2.636 Mbytes
Step Temp TotEng Press c_p_all v_mcmoves v_mcaccratio 
       0   0.96736111   -4.1195203    2.5088063    1.6986932            0            0 
     200   0.96736111   -4.3070898    1.9130371     1.102924        25000      0.39292 
     400   0.96736111   -4.1346867     2.522293    1.7121799        50000      0.39554 
     600   0.96736111    -4.010407    3.0436689    2.2335558        75000   0.39318667 
     800   0.96736111   -4.2009263    2.0526523    1.2425392       100000      0.39285 
    1000   0.96736111   -4.2723962    1.8080442   0.99793112       125000     0.392768 
    1200   0.96736111   -4.3221585    1.5550022   0.74488913       150000   0.39358667 
    1400   0.96736111   -4.1091813    2.6573009    1.8471878       175000   0.39470286 
    1600   0.96736111    -4.144427     2.308857    1.4987439       200000      0.39462 
    1800   0.96736111   -4.0598623    2.6593504    1.8492373       225000   0.39461333 
    2000   0.96736111   -4.2457652    1.8760338    1.0659207       250000     0.394712 
    2200   0.96736111   -4.0513907    2.8908645    2.0807515       275000   0.39473091 
    2400   0.96736111   -4.3202524    1.5293224   0.71920935       300000   0.39496333 
    2600   0.96736111   -4.2110602    2.1444448    1.3343317       325000   0.39463077 
    2800   0.96736111   -4.3190108    1.4020845    0.5919714       350000      0.39476 
    3000   0.96736111   -4.1569672    2.2244966    1.4143835       375000      0.39472 
    3200   0.96736111   -4.1758592    2.1881807    1.3780676       400000      0.39417 
    3400   0.96736111   -4.2914863    1.6811467   0.87103366       425000   0.39340471 
    3600   0.96736111   -4.3095949    1.7191889   0.90907586       450000   0.39321111 
    3800   0.96736111   -4.0065057    2.8144095    2.0042964       475000   0.39323579 
    4000   0.96736111   -4.0565294    2.6919762    1.8818631       500000     0.392902 
    4200   0.96736111   -4.2221124    2.0284536    1.2183405       525000   0.39269524 
    4400   0.96736111   -4.0843014    2.7019703    1.8918572       550000   0.39249636 
    4600   0.96736111   -4.1553646    2.3021137    1.4920006       575000   0.39266783 
    4800   0.96736111   -4.1342202    2.1453062    1.3351932       600000   0.39281333 
    5000   0.96736111   -4.3944314    1.0699106   0.25979749       625000     0.393016 
    5200   0.96736111   -4.1588206    2.3817781     1.571665       650000      0.39284 
    5400   0.96736111   -4.1739692    2.3332515    1.5231384       675000   0.39250222 
    5600   0.96736111   -4.3591632    1.3358022   0.52568916       700000   0.39248857 
    5800   0.96736111   -4.1458276    2.3206605    1.5105474       725000   0.39256138 
    6000   0.96736111   -4.2010163     2.281892    1.4717789       750000   0.39258933 
    6200   0.96736111   -4.2568814    1.9101048    1.0999917       775000   0.39264645 
    6400   0.96736111   -4.1619506    2.3239414    1.5138283       800000   0.39265125 
    6600   0.96736111   -4.1601588    2.2870508    1.4769377       825000   0.39264727 
    6800   0.96736111   -4.1887624    2.1241394    1.3140263       850000      0.39244 
    7000   0.96736111   -4.3435838    1.3521537   0.54204061       875000   0.39248343 
    7200   0.96736111   -4.2258612    2.0474701    1.2373571       900000      0.39252 
    7400   0.96736111   -4.1741127    2.1633379    1.3532248       925000   0.39255135 
    7600   0.96736111   -4.2931266    1.4965845   0.68647142       950000   0.39246632 
    7800   0.96736111   -4.2454866    1.8539385    1.0438254       975000   0.39247692 
    8000   0.96736111    -4.158019    2.2406946    1.4305816      1000000     0.392474 
    8200   0.96736111   -4.2974452    1.5501285    0.7400154      1025000   0.39265268 
    8400   0.96736111   -4.2814114    1.5730816   0.76296849      1050000   0.39265524 
    8600   0.96736111   -4.0551077    2.5493224    1.7392093      1075000   0.39266605 
    8800   0.96736111   -4.1461992    2.4989808    1.6888677      1100000   0.39277455 
    9000   0.96736111   -4.2834047    1.4894807    0.6793676      1125000   0.39292622 
    9200   0.96736111    -4.273819    1.6747078   0.86459471      1150000   0.39309913 
    9400   0.96736111   -4.1463557    2.4445199    1.6344069      1175000   0.39303319 
    9600   0.96736111     -4.18517    2.1674893    1.3573763      1200000    0.3929725 
    9800   0.96736111   -4.2614684     1.736801   0.92668796      1225000   0.39279347 
   10000   0.96736111   -4.0999619     2.629129    1.8190159      1250000     0.392776 
   10200   0.96736111    -4.112983    2.6079739    1.7978608      1275000   0.39259765 
   10400   0.96736111   -4.0389061    2.8151203    2.0050072      1300000   0.39237231 
   10600   0.96736111   -4.1120024    2.5422815    1.7321684      1325000   0.39252075 
   10800   0.96736111   -4.0918248    2.6363228    1.8262097      1350000   0.39249111 
   11000   0.96736111   -4.2551631    1.6323825   0.82226946      1375000   0.39236436 
   11200   0.96736111   -4.1478688    2.4314871     1.621374      1400000      0.39239 
   11400   0.96736111   -4.2384747    2.0563129    1.2461998      1425000   0.39239649 
   11600   0.96736111   -4.2753729    1.6678056   0.85769249      1450000   0.39221862 
   11800   0.96736111    -4.232323     1.864246     1.054133      1475000   0.39224949 
   12000   0.96736111   -4.0899305    2.6900489    1.8799358      1500000   0.39227267 
   12200   0.96736111   -4.2042372    1.8918471     1.081734      1525000   0.39223672 
   12400   0.96736111   -4.1264589    2.4178358    1.6077227      1550000   0.39233032 
   12600   0.96736111   -4.2017787    2.0659457    1.2558327      1575000    0.3922927 
   12800   0.96736111   -4.1348838    2.4400494    1.6299364      1600000   0.39241562 
   13000   0.96736111    -4.186017    2.0298181     1.219705      1625000   0.39235815 
   13200   0.96736111   -4.1613486    2.1443759    1.3342628      1650000   0.39244182 
   13400   0.96736111   -4.2735558    1.6512036   0.84109054      1675000   0.39250507 
   13600   0.96736111     -4.19241    2.1471249    1.3370118      1700000   0.39253941 
   13800   0.96736111   -4.1490587    2.3738281     1.563715      1725000   0.39243768 
   14000   0.96736111   -4.1411701    2.2972314    1.4871183      1750000   0.39249086 
   14200   0.96736111   -4.2866122     1.730251   0.92013794      1775000   0.39252563 
   14400   0.96736111   -4.1580105    2.2651518    1.4550387      1800000   0.39250833 
   14600   0.96736111    -4.178076    2.1263575    1.3162444      1825000   0.39261096 
   14800   0.96736111   -4.0877649    2.5758423    1.7657292      1850000   0.39253784 
   15000   0.96736111   -3.9271037    3.2409026    2.4307895      1875000   0.39249013 
   15200   0.96736111   -4.2552821    1.8188876    1.0087745      1900000   0.39244579 
   15400   0.96736111   -4.1292335    2.3414513    1.5313382      1925000   0.39254649 
   15600   0.96736111   -4.2452992    1.8129559    1.0028428      1950000   0.39253026 
   15800   0.96736111   -4.1529974    2.2901978    1.4800848      1975000   0.39256608 
   16000   0.96736111   -4.1978925    2.1410289    1.3309158      2000000      0.39266 
   16200   0.96736111   -4.1688028    2.1808388    1.3707257      2025000   0.39263111 
   16400   0.96736111    -4.041506    2.7086357    1.8985226      2050000   0.39261463 
   16600   0.96736111   -4.1724402    2.1254778    1.3153647      2075000   0.39262651 
   16800   0.96736111   -4.1968683     2.110241    1.3001279      2100000   0.39261571 
   17000   0.96736111    -4.219987    2.0452877    1.2351747      2125000   0.39261694 
   17200   0.96736111   -4.1248353    2.5822798    1.7721667      2150000   0.39265581 
   17400   0.96736111   -4.0740715    2.7152374    1.9051244      2175000   0.39246437 
   17600   0.96736111   -4.1852549    2.1452223    1.3351093      2200000   0.39252545 
   17800   0.96736111   -4.2798886      1.62149   0.81137695      2225000   0.39255775 
   18000   0.96736111   -4.1129607     2.285341    1.4752279      2250000   0.39259689 
   18200   0.96736111   -4.2133368    2.1394144    1.3293013      2275000   0.39256044 
   18400   0.96736111   -4.2416308    1.6927413   0.88262822      2300000   0.39257174 
   18600   0.96736111   -4.2808422    1.5738231   0.76370999      2325000   0.39266409 
   18800   0.96736111   -4.1007697    2.5020643    1.6919513      2350000   0.39265277 
   19000   0.96736111    -4.081488    2.5788879    1.7687748      2375000   0.39270274 
   19200   0.96736111   -4.2754285    1.7608514   0.95073829      2400000   0.39271708 
   19400   0.96736111   -4.1762106    2.1614507    1.3513376      2425000   0.39277773 
   19600   0.96736111   -4.1772774    2.1733356    1.3632225      2450000   0.39274653 
   19800   0.96736111   -4.1242708    2.3066791     1.496566      2475000   0.39275475 
   20000   0.96736111   -4.2057191    2.0754026    1.2652896      2500000    0.3927692 
Loop time of 104.228 on 1 procs for 20000 steps with 125 atoms

Performance: 82895.262 tau/day, 191.887 timesteps/s
99.7% CPU use with 1 MPI tasks x no OpenMP threads

MPI task timing breakdown:
Section |  min time  |  avg time  |  max time  |%varavg| %total
---------------------------------------------------------------
Pair    | 5.194      | 5.194      | 5.194      |   0.0 |  4.98
Neigh   | 10.87      | 10.87      | 10.87      |   0.0 | 10.43
Comm    | 0.71028    | 0.71028    | 0.71028    |   0.0 |  0.68
Output  | 0.0039597  | 0.0039597  | 0.0039597  |   0.0 |  0.00
Modify  | 87.326     | 87.326     | 87.326     |   0.0 | 83.78
Other   |            | 0.1245     |            |       |  0.12

Nlocal:        125.000 ave         125 max         125 min
Histogram: 1 0 0 0 0 0 0 0 0 0
Nghost:        1673.00 ave        1673 max        1673 min
Histogram: 1 0 0 0 0 0 0 0 0 0
Neighs:        12011.0 ave       12011 max       12011 min
Histogram: 1 0 0 0 0 0 0 0 0 0

Total # of neighbors = 12011
Ave neighs/atom = 96.088000
Neighbor list builds = 20000
Dangerous builds not checked

variable	p equal f_ave_p

print	"Average virial pressure from MC: $p"
Average virial pressure from MC: 1.31325575354809
Total wall time: 0:02:17
