
variable        mcmoves equal f_montecarlo[1]
variable        mcaccratio equal f_montecarlo[2]/(f_montecarlo[1]+1e-10)

thermo_style	custom step temp etotal press c_p_all v_mcmoves v_mcaccratio

thermo	200

run		${prodlength}
run		20000
WARNING: Fix gcmc is being applied to the default group all (../fix_gcmc.cpp:663)
Per MPI rank memory allocation (min/avg/max) = 2.636 | 2.636 | 2.636 Mbytes
Step Temp TotEng Press c_p_all v_mcmoves v_mcaccratio 
       0    4.0850469    2.9612048    15.403178    11.982171            0            0 
     200    4.0850469    3.1805822    16.652989    13.231981        25000      0.68672 
     400    4.0850469    2.7642425      15.0963    11.675293        50000      0.68472 
     600    4.0850469    2.5548834    14.028733    10.607725        75000      0.68676 
     800    4.0850469    2.3596672    13.441954    10.020946       100000      0.68517 
    1000    4.0850469    3.3294042     17.25978    13.838772       125000      0.68388 
    1200    4.0850469    2.6192968    14.420776    10.999768       150000   0.68286667 
    1400    4.0850469      2.85004    15.259983    11.838975       175000   0.68400571 
    1600    4.0850469    2.9255505    15.707859    12.286851       200000     0.683635 
    1800    4.0850469    3.1147796    16.686904    13.265896       225000   0.68346222 
    2000    4.0850469    2.7957987    14.922625    11.501617       250000     0.683068 
    2200    4.0850469    2.6427049    14.530917    11.109909       275000       0.6832 
    2400    4.0850469    2.4845039     13.67909    10.258082       300000      0.68349 
    2600    4.0850469    2.4520837    13.611416    10.190408       325000   0.68364923 
    2800    4.0850469    2.6024184    14.353999    10.932991       350000   0.68355143 
    3000    4.0850469      2.89116    15.450227     12.02922       375000     0.683416 
    3200    4.0850469     2.584043    14.210535    10.789527       400000    0.6829025 
    3400    4.0850469    2.5046249    13.833795    10.412787       425000   0.68271059 
    3600    4.0850469    3.1921342    16.770443    13.349435       450000   0.68306222 
    3800    4.0850469    2.8481339    15.402331    11.981323       475000   0.68261263 
    4000    4.0850469    2.7113432    14.850744    11.429736       500000     0.682136 
    4200    4.0850469    2.8478634     15.39185    11.970843       525000   0.68199048 
    4400    4.0850469    2.2966174    12.985515    9.5645069       550000   0.68166545 
    4600    4.0850469    2.9755252    15.884983    12.463975       575000    0.6817113 
    4800    4.0850469    3.1881801    16.808631    13.387623       600000   0.68181833 
    5000    4.0850469     2.823933    15.376401    11.955393       625000    0.6816928 
    5200    4.0850469    2.5535965    13.947151    10.526143       650000   0.68163692 
    5400    4.0850469    3.6742941    18.738238    15.317231       675000   0.68138074 
    5600    4.0850469    2.6422135    14.542134    11.121126       700000   0.68114429 
    5800    4.0850469     3.167546    16.480576    13.059569       725000   0.68128828 
    6000    4.0850469    3.0152529    16.315827     12.89482       750000   0.68154267 
    6200    4.0850469    3.2454517    17.085338     13.66433       775000   0.68130323 
    6400    4.0850469    2.7545682    14.909628     11.48862       800000   0.68131375 
    6600    4.0850469    2.4335367    13.511243    10.090235       825000   0.68134909 
    6800    4.0850469    3.0243478    15.891734    12.470726       850000   0.68149529 
    7000    4.0850469    2.1386659    12.535915    9.1149076       875000   0.68173371 
    7200    4.0850469    2.4905309    13.807448     10.38644       900000   0.68191778 
    7400    4.0850469    2.5117711    13.834407    10.413399       925000   0.68187135 
    7600    4.0850469    2.2340937    12.543898    9.1228898       950000   0.68196842 
    7800    4.0850469    2.7780518    15.304889    11.883882       975000   0.68182154 
    8000    4.0850469    2.7495155    14.803842    11.382834      1000000     0.681829 
    8200    4.0850469    2.5485929    14.201639    10.780631      1025000   0.68218829 
    8400    4.0850469    2.6948609    14.658494    11.237487      1050000   0.68216857 
    8600    4.0850469      2.67855     14.71278    11.291772      1075000   0.68212465 
    8800    4.0850469    2.8906009    15.552116    12.131108      1100000   0.68215636 
    9000    4.0850469    3.2708528    17.155183    13.734175      1125000   0.68229244 
    9200    4.0850469    3.0740789    16.426825    13.005817      1150000   0.68221565 
    9400    4.0850469    2.5248782    14.174223    10.753215      1175000   0.68232596 
    9600    4.0850469    3.0179101    16.089643    12.668636      1200000    0.6825025 
    9800    4.0850469     2.971642    15.652419    12.231411      1225000    0.6826302 
   10000    4.0850469    2.6565426    14.649402    11.228395      1250000    0.6825496 
   10200    4.0850469    3.1329354    16.634042    13.213034      1275000   0.68249647 
   10400    4.0850469     2.503947     14.00114    10.580132      1300000      0.68227 
   10600    4.0850469    2.7991419    15.079724    11.658716      1325000   0.68222415 
   10800    4.0850469    2.7625761    14.969257    11.548249      1350000   0.68221926 
   11000    4.0850469    2.6255297    14.422829    11.001821      1375000   0.68220436 
   11200    4.0850469    2.7721839    15.176538     11.75553      1400000      0.68222 
   11400    4.0850469    2.8204571    15.361132    11.940124      1425000   0.68214807 
   11600    4.0850469    2.8808785    15.472377     12.05137      1450000   0.68206759 
   11800    4.0850469    2.9257559    15.404996    11.983988      1475000    0.6819878 
   12000    4.0850469    2.7827297    14.989896    11.568888      1500000   0.68202133 
   12200    4.0850469    2.4164269    13.539453    10.118446      1525000   0.68208984 
   12400    4.0850469    2.6249882    14.426207      11.0052      1550000    0.6821471 
   12600    4.0850469    2.4327629    13.410287    9.9892791      1575000   0.68238667 
   12800    4.0850469    2.6189432    14.391189    10.970181      1600000   0.68244812 
   13000    4.0850469     2.901209     15.50071    12.079702      1625000   0.68257477 
   13200    4.0850469    2.8400134    14.965091    11.544083      1650000   0.68263818 
   13400    4.0850469    2.2959269    13.201495    9.7804875      1675000   0.68268179 
   13600    4.0850469    2.9984339    15.830368     12.40936      1700000   0.68261706 
   13800    4.0850469    2.8300108    15.131871    11.710863      1725000    0.6827142 
   14000    4.0850469    3.0934452    16.605547    13.184539      1750000   0.68274343 
   14200    4.0850469    2.0795359    12.451146    9.0301384      1775000   0.68267211 
   14400    4.0850469    2.5631406    14.155973    10.734965      1800000   0.68267056 
   14600    4.0850469    3.0979728    16.319634    12.898627      1825000   0.68271562 
   14800    4.0850469    2.7863522    14.878262    11.457254      1850000   0.68266108 
   15000    4.0850469    2.8682509    15.514571    12.093563      1875000    0.6826304 
   15200    4.0850469    3.1929617    16.767917    13.346909      1900000   0.68263684 
   15400    4.0850469    2.6346982       14.256    10.834992      1925000   0.68272364 
   15600    4.0850469    2.9544219    16.186639    12.765631      1950000   0.68265282 
   15800    4.0850469    2.6983851    14.554382    11.133374      1975000   0.68262633 
   16000    4.0850469    2.8810945    15.559034    12.138026      2000000    0.6826155 
   16200    4.0850469    2.8190699    15.004969    11.583961      2025000   0.68256444 
   16400    4.0850469    2.5458868     13.95364    10.532632      2050000   0.68259415 
   16600    4.0850469     2.763257    15.196852    11.775844      2075000   0.68252434 
   16800    4.0850469    2.9749655    15.889606    12.468599      2100000   0.68248238 
   17000    4.0850469    2.2238412    12.764372    9.3433647      2125000   0.68242165 
   17200    4.0850469    2.8484827    15.198574    11.777567      2150000   0.68245674 
   17400    4.0850469    2.5105877     13.66251    10.241502      2175000   0.68247218 
   17600    4.0850469    2.7642803     15.13521    11.714202      2200000   0.68246545 
   17800    4.0850469     3.204863    16.642338    13.221331      2225000   0.68242652 
   18000    4.0850469    2.9180484    15.685636    12.264628      2250000   0.68242533 
   18200    4.0850469    3.1293852    16.753432    13.332424      2275000   0.68243516 
   18400    4.0850469    2.4975429    13.985708      10.5647      2300000   0.68239957 
   18600    4.0850469    2.2719383    13.046205    9.6251973      2325000   0.68243699 
   18800    4.0850469    2.1916977    12.777195    9.3561875      2350000   0.68245404 
   19000    4.0850469     2.777745    14.987353    11.566345      2375000   0.68245768 
   19200    4.0850469    2.4087485    13.597067    10.176059      2400000    0.6825025 
   19400    4.0850469    2.3124217    13.211276    9.7902684      2425000   0.68250227 
   19600    4.0850469    3.3010439    17.052529    13.631521      2450000   0.68238531 
   19800    4.0850469    3.1221143    16.569042    13.148035      2475000   0.68239717 
   20000    4.0850469    2.8669936    15.325672    11.904664      2500000    0.6823976 
Loop time of 209.732 on 1 procs for 20000 steps with 125 atoms

Performance: 41195.376 tau/day, 95.360 timesteps/s
99.6% CPU use with 1 MPI tasks x no OpenMP threads

MPI task timing breakdown:
Section |  min time  |  avg time  |  max time  |%varavg| %total
---------------------------------------------------------------
Pair    | 8.1577     | 8.1577     | 8.1577     |   0.0 |  3.89
Neigh   | 17.535     | 17.535     | 17.535     |   0.0 |  8.36
Comm    | 1.1031     | 1.1031     | 1.1031     |   0.0 |  0.53
Output  | 0.0051567  | 0.0051567  | 0.0051567  |   0.0 |  0.00
Modify  | 182.72     | 182.72     | 182.72     |   0.0 | 87.12
Other   |            | 0.2089     |            |       |  0.10

Nlocal:        125.000 ave         125 max         125 min
Histogram: 1 0 0 0 0 0 0 0 0 0
Nghost:        1699.00 ave        1699 max        1699 min
Histogram: 1 0 0 0 0 0 0 0 0 0
Neighs:        12099.0 ave       12099 max       12099 min
Histogram: 1 0 0 0 0 0 0 0 0 0

Total # of neighbors = 12099
Ave neighs/atom = 96.792000
Neighbor list builds = 20000
Dangerous builds not checked

variable	p equal f_ave_p

print	"Average virial pressure from MC: $p"
Average virial pressure from MC: 11.4849132492158
Total wall time: 0:04:24
