
variable        mcmoves equal f_montecarlo[1]
variable        mcaccratio equal f_montecarlo[2]/(f_montecarlo[1]+1e-10)

thermo_style	custom step temp etotal press c_p_all v_mcmoves v_mcaccratio

thermo	200

run		${prodlength}
run		20000
WARNING: Fix gcmc is being applied to the default group all (../fix_gcmc.cpp:663)
Per MPI rank memory allocation (min/avg/max) = 2.636 | 2.636 | 2.636 Mbytes
Step Temp TotEng Press c_p_all v_mcmoves v_mcaccratio 
       0   0.96736111   -4.1195203    2.5088063    1.6986932            0            0 
     200   0.96736111   -4.2416112    1.8288538    1.0187407        25000      0.28048 
     400   0.96736111   -4.1835821    2.1246041     1.314491        50000      0.28048 
     600   0.96736111   -4.2369426    1.8961498    1.0860367        75000   0.27914667 
     800   0.96736111   -4.2506638    1.7621471     0.952034       100000      0.27868 
    1000   0.96736111   -4.1252827    2.4045234    1.5944103       125000     0.277464 
    1200   0.96736111   -4.1775716    2.0905364    1.2804233       150000   0.27649333 
    1400   0.96736111   -4.1759847    2.1849819    1.3748688       175000   0.27522857 
    1600   0.96736111   -4.0474786    2.6760709    1.8659578       200000      0.27496 
    1800   0.96736111   -4.0335606    3.0720927    2.2619797       225000   0.27528889 
    2000   0.96736111   -4.0295251    2.7964607    1.9863476       250000     0.275212 
    2200   0.96736111   -4.1545572    2.2990041     1.488891       275000      0.27492 
    2400   0.96736111   -4.1186711    2.3658701     1.555757       300000   0.27458333 
    2600   0.96736111   -4.2548589    1.7366165   0.92650339       325000   0.27416923 
    2800   0.96736111   -4.1446539    2.3559348    1.5458218       350000   0.27389143 
    3000   0.96736111   -4.1269011      2.34109     1.530977       375000   0.27366667 
    3200   0.96736111   -4.1362828    2.3286845    1.5185714       400000    0.2736225 
    3400   0.96736111   -4.3328355    1.4737426   0.66362956       425000   0.27358353 
    3600   0.96736111   -4.3095368    1.5496825   0.73956943       450000   0.27360889 
    3800   0.96736111   -4.0361732    2.7175413    1.9074282       475000   0.27357263 
    4000   0.96736111   -4.0105029    2.8102073    2.0000942       500000     0.273728 
    4200   0.96736111   -4.1288469    2.6478535    1.8377404       525000   0.27376571 
    4400   0.96736111   -4.1386179    2.4174243    1.6073112       550000   0.27366545 
    4600   0.96736111   -4.3405647    1.3894993    0.5793862       575000   0.27355652 
    4800   0.96736111   -4.2124035    2.0790138    1.2689007       600000   0.27362167 
    5000   0.96736111   -4.1849649    2.1317982    1.3216851       625000    0.2739024 
    5200   0.96736111    -4.299799    1.5511811     0.741068       650000   0.27404462 
    5400   0.96736111   -4.1444187     2.277968     1.467855       675000   0.27383556 
    5600   0.96736111   -4.1386419    2.1957558    1.3856427       700000   0.27369143 
    5800   0.96736111   -4.2522115    1.7526253   0.94251219       725000   0.27401655 
    6000   0.96736111   -4.0577674    2.7064684    1.8963553       750000   0.27394533 
    6200   0.96736111   -4.0908987    2.6317372    1.8216241       775000   0.27382581 
    6400   0.96736111   -4.1964985    2.1150076    1.3048945       800000    0.2738225 
    6600   0.96736111   -4.2366058    1.9669884    1.1568753       825000   0.27386909 
    6800   0.96736111   -4.0551385    2.8408391     2.030726       850000   0.27386118 
    7000   0.96736111   -4.1571918      2.41562    1.6055069       875000   0.27363429 
    7200   0.96736111   -4.2061516    2.0230711    1.2129581       900000   0.27360889 
    7400   0.96736111   -4.2117742    1.9193472    1.1092342       925000   0.27366486 
    7600   0.96736111   -4.1691836    2.2727238    1.4626107       950000   0.27396105 
    7800   0.96736111   -4.3179395     1.560257   0.75014392       975000   0.27401949 
    8000   0.96736111    -4.267404    1.7529617   0.94284867      1000000     0.274121 
    8200   0.96736111   -4.1605195    2.1391533    1.3290402      1025000   0.27425073 
    8400   0.96736111   -4.1323331    2.2735156    1.4634025      1050000   0.27432095 
    8600   0.96736111   -4.1278198    2.5446454    1.7345323      1075000    0.2742586 
    8800   0.96736111   -4.1836142     2.250815    1.4407019      1100000      0.27428 
    9000   0.96736111   -4.1794572     2.275891    1.4657779      1125000   0.27427822 
    9200   0.96736111   -4.2786547    1.7429614   0.93284836      1150000   0.27451043 
    9400   0.96736111   -4.0949154    2.7266316    1.9165186      1175000   0.27470128 
    9600   0.96736111   -4.1567322    2.4244256    1.6143125      1200000      0.27463 
    9800   0.96736111   -4.1936051    2.1453467    1.3352336      1225000   0.27457959 
   10000   0.96736111   -4.2954588    1.6391371   0.82902403      1250000    0.2746168 
   10200   0.96736111   -4.0512919     2.822734    2.0126209      1275000   0.27475608 
   10400   0.96736111   -4.1889141    2.0416114    1.2314984      1300000   0.27469385 
   10600   0.96736111   -4.1936141    2.0557529    1.2456398      1325000   0.27452528 
   10800   0.96736111    -4.228888    1.8840491     1.073936      1350000   0.27451333 
   11000   0.96736111   -4.1668226    2.3643126    1.5541995      1375000   0.27442109 
   11200   0.96736111   -4.1177792    2.6217594    1.8116463      1400000   0.27446357 
   11400   0.96736111   -4.1981702    2.0613196    1.2512066      1425000   0.27444281 
   11600   0.96736111   -4.2325927    1.8201525    1.0100394      1450000   0.27439034 
   11800   0.96736111   -4.1809007    2.1474984    1.3373853      1475000   0.27429831 
   12000   0.96736111   -4.2507475    1.9457565    1.1356434      1500000     0.274406 
   12200   0.96736111   -4.2625642    1.9366798    1.1265667      1525000   0.27438754 
   12400   0.96736111   -4.2188533    2.0860377    1.2759247      1550000   0.27430774 
   12600   0.96736111   -4.2056006    2.0803661    1.2702531      1575000   0.27434159 
   12800   0.96736111   -4.0504158    2.5958729    1.7857599      1600000      0.27429 
   13000   0.96736111   -4.3154477    1.4450033   0.63489025      1625000   0.27440677 
   13200   0.96736111   -4.2097006    2.0391301     1.229017      1650000   0.27455394 
   13400   0.96736111   -4.1392975    2.4760733    1.6659603      1675000   0.27454209 
   13600   0.96736111   -4.3212853    1.5610434    0.7509303      1700000   0.27442294 
   13800   0.96736111   -4.1298577     2.401254    1.5911409      1725000   0.27448116 
   14000   0.96736111   -4.2929538    1.8197628    1.0096498      1750000   0.27442971 
   14200   0.96736111   -4.2698641    1.6660895    0.8559764      1775000   0.27445634 
   14400   0.96736111   -4.1598557    2.3785775    1.5684645      1800000   0.27442333 
   14600   0.96736111   -4.1464542    2.2940981     1.483985      1825000    0.2744811 
   14800   0.96736111   -4.2607757    1.8252487    1.0151356      1850000   0.27451676 
   15000   0.96736111   -4.1943701    2.3059741    1.4958611      1875000     0.274552 
   15200   0.96736111   -4.0000395    3.1600144    2.3499014      1900000   0.27457211 
   15400   0.96736111   -4.0612966    2.7817046    1.9715915      1925000   0.27447325 
   15600   0.96736111   -4.1926733     2.107422    1.2973089      1950000   0.27450718 
   15800   0.96736111   -4.0354632     2.905159    2.0950459      1975000   0.27448354 
   16000   0.96736111   -4.3453463    1.5005347   0.69042161      2000000     0.274451 
   16200   0.96736111   -4.1290096    2.4082909    1.5981778      2025000   0.27438716 
   16400   0.96736111   -4.3143419     1.461782   0.65166893      2050000    0.2743878 
   16600   0.96736111   -4.1729909    2.0998496    1.2897365      2075000   0.27436096 
   16800   0.96736111   -4.0799996    2.7033043    1.8931912      2100000   0.27428143 
   17000   0.96736111   -4.1454279     2.329621     1.519508      2125000   0.27422353 
   17200   0.96736111   -4.1767027    2.1590627    1.3489496      2150000   0.27419163 
   17400   0.96736111   -4.2735393    1.6301739   0.82006086      2175000   0.27413287 
   17600   0.96736111   -4.1304365    2.3027224    1.4926093      2200000   0.27417455 
   17800   0.96736111   -4.2962173    1.7491314   0.93901831      2225000   0.27425888 
   18000   0.96736111   -4.1889824    2.0135942    1.2034812      2250000   0.27432667 
   18200   0.96736111   -4.1352596     2.212448    1.4023349      2275000   0.27432527 
   18400   0.96736111   -4.2744698    1.6225044   0.81239133      2300000    0.2743313 
   18600   0.96736111   -4.0528731    2.6309267    1.8208137      2325000   0.27430065 
   18800   0.96736111   -4.3748634     1.251201   0.44108789      2350000   0.27431915 
   19000   0.96736111   -4.1276548    2.5420453    1.7319322      2375000   0.27433137 
   19200   0.96736111   -4.3756812    1.2139671   0.40385401      2400000   0.27433833 
   19400   0.96736111   -4.2232706    1.9667235    1.1566104      2425000   0.27433072 
   19600   0.96736111   -4.1848713    2.3012366    1.4911235      2450000   0.27437673 
   19800   0.96736111   -4.1837617    2.0548932    1.2447801      2475000   0.27436525 
   20000   0.96736111   -4.2179122    2.0146694    1.2045564      2500000    0.2743184 
Loop time of 95.6261 on 1 procs for 20000 steps with 125 atoms

Performance: 90351.946 tau/day, 209.148 timesteps/s
99.7% CPU use with 1 MPI tasks x no OpenMP threads

MPI task timing breakdown:
Section |  min time  |  avg time  |  max time  |%varavg| %total
---------------------------------------------------------------
Pair    | 5.2121     | 5.2121     | 5.2121     |   0.0 |  5.45
Neigh   | 10.939     | 10.939     | 10.939     |   0.0 | 11.44
Comm    | 0.71923    | 0.71923    | 0.71923    |   0.0 |  0.75
Output  | 0.0039348  | 0.0039348  | 0.0039348  |   0.0 |  0.00
Modify  | 78.638     | 78.638     | 78.638     |   0.0 | 82.23
Other   |            | 0.1136     |            |       |  0.12

Nlocal:        125.000 ave         125 max         125 min
Histogram: 1 0 0 0 0 0 0 0 0 0
Nghost:        1642.00 ave        1642 max        1642 min
Histogram: 1 0 0 0 0 0 0 0 0 0
Neighs:        12064.0 ave       12064 max       12064 min
Histogram: 1 0 0 0 0 0 0 0 0 0

Total # of neighbors = 12064
Ave neighs/atom = 96.512000
Neighbor list builds = 20000
Dangerous builds not checked

variable	p equal f_ave_p

print	"Average virial pressure from MC: $p"
Average virial pressure from MC: 1.34442989126659
Total wall time: 0:02:09
