
variable        mcmoves equal f_montecarlo[1]
variable        mcaccratio equal f_montecarlo[2]/(f_montecarlo[1]+1e-10)

thermo_style	custom step temp etotal press c_p_all v_mcmoves v_mcaccratio

thermo	200

run		${prodlength}
run		20000
WARNING: Fix gcmc is being applied to the default group all (../fix_gcmc.cpp:663)
Per MPI rank memory allocation (min/avg/max) = 2.636 | 2.636 | 2.636 Mbytes
Step Temp TotEng Press c_p_all v_mcmoves v_mcaccratio 
       0    3.1609019   0.96396274    12.751717    10.104631            0            0 
     200    3.1609019    1.1358743      13.1541    10.507014        25000      0.66764 
     400    3.1609019    1.0167554    12.593414    9.9463279        50000      0.67188 
     600    3.1609019    1.1904759    13.242826     10.59574        75000   0.67325333 
     800    3.1609019    1.2089394    13.600241    10.953155       100000      0.67322 
    1000    3.1609019   0.93491831    11.880464    9.2333781       125000     0.674344 
    1200    3.1609019    1.4435274     14.48787    11.840785       150000   0.67245333 
    1400    3.1609019   0.89270827    12.114015    9.4669291       175000   0.67066857 
    1600    3.1609019    1.1488893    13.216282    10.569196       200000     0.671065 
    1800    3.1609019    1.2218958    13.423062    10.775976       225000   0.67147111 
    2000    3.1609019   0.82178535    11.974329    9.3272435       250000     0.671648 
    2200    3.1609019    1.2626171    13.964075    11.316989       275000   0.67181818 
    2400    3.1609019    1.1000968    12.853785    10.206699       300000   0.67215333 
    2600    3.1609019    1.0916587    13.109691    10.462605       325000   0.67228308 
    2800    3.1609019    1.2615788    14.023556     11.37647       350000   0.67203714 
    3000    3.1609019   0.89953461    12.041657    9.3945712       375000     0.671944 
    3200    3.1609019   0.78346985    11.626869    8.9797828       400000     0.671955 
    3400    3.1609019   0.33497257    9.4290784    6.7819925       425000   0.67243765 
    3600    3.1609019    1.3197208     13.99693    11.349844       450000   0.67273333 
    3800    3.1609019     1.475755    14.504408    11.857322       475000      0.67256 
    4000    3.1609019    1.0531376     12.73895    10.091864       500000     0.672312 
    4200    3.1609019    1.1260706    13.378338    10.731252       525000      0.67252 
    4400    3.1609019    1.0770745    12.957227    10.310141       550000   0.67221818 
    4600    3.1609019   0.87062502    12.082158    9.4350718       575000   0.67187304 
    4800    3.1609019   0.87111946    12.214635    9.5675493       600000     0.671815 
    5000    3.1609019   0.79055459    11.723972    9.0768861       625000    0.6718368 
    5200    3.1609019    1.2385594    13.759979    11.112893       650000   0.67203385 
    5400    3.1609019    1.4017345    14.315624    11.668538       675000   0.67184296 
    5600    3.1609019    0.7598068    11.561894     8.914808       700000   0.67169143 
    5800    3.1609019   0.99614797    12.260475    9.6133887       725000   0.67190621 
    6000    3.1609019    1.0333453    12.588633    9.9415472       750000      0.67212 
    6200    3.1609019    1.1644407    13.116498    10.469412       775000   0.67193161 
    6400    3.1609019    1.2227561    13.841401    11.194315       800000   0.67207125 
    6600    3.1609019    0.7108143    11.363757    8.7166713       825000   0.67216364 
    6800    3.1609019    1.1929053    13.434908    10.787822       850000   0.67241647 
    7000    3.1609019   0.42904419    10.099878    7.4527925       875000      0.67256 
    7200    3.1609019   0.68766336    11.211483    8.5643975       900000   0.67273222 
    7400    3.1609019    1.2967368    14.013533    11.366447       925000   0.67273297 
    7600    3.1609019   0.84352245    11.849535    9.2024495       950000   0.67277263 
    7800    3.1609019    1.0322589     12.59003    9.9429445       975000   0.67287077 
    8000    3.1609019    1.2227696    13.564328    10.917242      1000000     0.672834 
    8200    3.1609019    1.0145114    12.405247    9.7581615      1025000   0.67282732 
    8400    3.1609019    1.6246261    15.139244    12.492159      1050000   0.67268762 
    8600    3.1609019    1.0128033    12.693263    10.046177      1075000    0.6727014 
    8800    3.1609019   0.85202621    12.087724    9.4406378      1100000   0.67275545 
    9000    3.1609019     1.287432    13.871611    11.224525      1125000   0.67267022 
    9200    3.1609019     1.363375    14.199783    11.552697      1150000   0.67261043 
    9400    3.1609019    1.0146337    12.520939    9.8738531      1175000   0.67258723 
    9600    3.1609019    1.4847521    14.293033    11.645947      1200000     0.672815 
    9800    3.1609019   0.98160434     12.56347    9.9163838      1225000   0.67285714 
   10000    3.1609019   0.95721683    12.635212    9.9881262      1250000    0.6728952 
   10200    3.1609019    1.5418572    14.590777    11.943691      1275000   0.67292784 
   10400    3.1609019    1.0212387    12.490767    9.8436814      1300000   0.67281231 
   10600    3.1609019     1.030259    12.727503    10.080417      1325000   0.67284906 
   10800    3.1609019   0.92510299     12.41532    9.7682344      1350000   0.67282074 
   11000    3.1609019   0.80772671    11.587277     8.940191      1375000   0.67282109 
   11200    3.1609019    1.2809067    13.891868    11.244782      1400000   0.67289143 
   11400    3.1609019     1.087445    12.861261    10.214175      1425000   0.67284912 
   11600    3.1609019   0.83030917    11.681332    9.0342459      1450000   0.67271655 
   11800    3.1609019    1.1078836    13.193162    10.546076      1475000   0.67289356 
   12000    3.1609019   0.73328401    11.392803    8.7457168      1500000      0.67302 
   12200    3.1609019    1.2309744    13.726851    11.079765      1525000   0.67300984 
   12400    3.1609019    1.1878099    13.246525    10.599439      1550000   0.67308258 
   12600    3.1609019    1.2543937    13.570276    10.923191      1575000   0.67308444 
   12800    3.1609019     1.835435    16.262077    13.614991      1600000    0.6730175 
   13000    3.1609019   0.90344304     12.38219    9.7351045      1625000   0.67288554 
   13200    3.1609019   0.83569234     11.77149    9.1244039      1650000   0.67299818 
   13400    3.1609019   0.67017914    11.044615    8.3975294      1675000   0.67302388 
   13600    3.1609019    1.1057043    12.983266     10.33618      1700000   0.67294765 
   13800    3.1609019   0.98919098    12.322506    9.6754203      1725000   0.67296116 
   14000    3.1609019   0.74109495    11.556396      8.90931      1750000   0.67304229 
   14200    3.1609019   0.66256272    10.959527    8.3124408      1775000   0.67306648 
   14400    3.1609019    0.8607882    12.088309     9.441223      1800000   0.67305722 
   14600    3.1609019   0.75613951    11.456294    8.8092084      1825000   0.67313534 
   14800    3.1609019    1.0406595    12.788496     10.14141      1850000   0.67314486 
   15000    3.1609019    1.7613629    15.987207    13.340121      1875000   0.67316853 
   15200    3.1609019    1.1281226    13.140032    10.492946      1900000   0.67312684 
   15400    3.1609019    1.5318041    14.939416     12.29233      1925000   0.67299273 
   15600    3.1609019   0.97141151    12.539591     9.892505      1950000   0.67295333 
   15800    3.1609019   0.75161659     11.53125    8.8841637      1975000   0.67300051 
   16000    3.1609019    1.2710474    13.655089    11.008003      2000000    0.6731265 
   16200    3.1609019    1.3625075    14.196313    11.549227      2025000   0.67307852 
   16400    3.1609019     1.370107    14.044714    11.397629      2050000   0.67304683 
   16600    3.1609019    1.6651847    15.488981    12.841895      2075000   0.67299133 
   16800    3.1609019    1.1984775    13.607834    10.960748      2100000   0.67289286 
   17000    3.1609019    1.0342625    12.742574    10.095488      2125000   0.67292471 
   17200    3.1609019    1.2984121    13.816054    11.168968      2150000    0.6729186 
   17400    3.1609019   0.69281704    11.206076    8.5589901      2175000   0.67284736 
   17600    3.1609019    1.1459279    12.973735    10.326649      2200000   0.67288091 
   17800    3.1609019    1.1607275    13.156628    10.509542      2225000   0.67289978 
   18000    3.1609019    0.9585151    12.371752    9.7246663      2250000   0.67291733 
   18200    3.1609019    1.1413211    13.146963    10.499877      2275000   0.67283341 
   18400    3.1609019    1.2071165    13.314932    10.667846      2300000   0.67274348 
   18600    3.1609019   0.74772863    11.427706    8.7806199      2325000   0.67279097 
   18800    3.1609019    1.4266698    14.624603    11.977517      2350000   0.67274085 
   19000    3.1609019   0.98141667    12.293838    9.6467521      2375000   0.67274316 
   19200    3.1609019    0.9713591    12.573648    9.9265617      2400000   0.67284375 
   19400    3.1609019    1.0059742    12.767044    10.119958      2425000   0.67284371 
   19600    3.1609019    1.0159037    12.703823    10.056737      2450000   0.67277347 
   19800    3.1609019    1.0454026    12.966384    10.319298      2475000   0.67278707 
   20000    3.1609019   0.88369013    11.891054    9.2439682      2500000     0.672784 
Loop time of 209.35 on 1 procs for 20000 steps with 125 atoms

Performance: 41270.529 tau/day, 95.534 timesteps/s
99.6% CPU use with 1 MPI tasks x no OpenMP threads

MPI task timing breakdown:
Section |  min time  |  avg time  |  max time  |%varavg| %total
---------------------------------------------------------------
Pair    | 8.2667     | 8.2667     | 8.2667     |   0.0 |  3.95
Neigh   | 17.537     | 17.537     | 17.537     |   0.0 |  8.38
Comm    | 1.1211     | 1.1211     | 1.1211     |   0.0 |  0.54
Output  | 0.0051813  | 0.0051813  | 0.0051813  |   0.0 |  0.00
Modify  | 182.21     | 182.21     | 182.21     |   0.0 | 87.03
Other   |            | 0.2127     |            |       |  0.10

Nlocal:        125.000 ave         125 max         125 min
Histogram: 1 0 0 0 0 0 0 0 0 0
Nghost:        1686.00 ave        1686 max        1686 min
Histogram: 1 0 0 0 0 0 0 0 0 0
Neighs:        12023.0 ave       12023 max       12023 min
Histogram: 1 0 0 0 0 0 0 0 0 0

Total # of neighbors = 12023
Ave neighs/atom = 96.184000
Neighbor list builds = 20000
Dangerous builds not checked

variable	p equal f_ave_p

print	"Average virial pressure from MC: $p"
Average virial pressure from MC: 10.0839301017855
Total wall time: 0:04:24
