
variable        mcmoves equal f_montecarlo[1]
variable        mcaccratio equal f_montecarlo[2]/(f_montecarlo[1]+1e-10)

thermo_style	custom step temp etotal press c_p_all v_mcmoves v_mcaccratio

thermo	200

run		${prodlength}
run		20000
WARNING: Fix gcmc is being applied to the default group all (../fix_gcmc.cpp:663)
Per MPI rank memory allocation (min/avg/max) = 2.636 | 2.636 | 2.636 Mbytes
Step Temp TotEng Press c_p_all v_mcmoves v_mcaccratio 
       0   0.10481072   -6.8738602   -3.7783843   -3.8661576            0            0 
     200   0.10481072   -6.8667556   -3.8181393   -3.9059127        25000      0.17908 
     400   0.10481072   -6.8522194   -3.7426988   -3.8304721        50000      0.18272 
     600   0.10481072   -6.8571622    -3.756294   -3.8440673        75000       0.1844 
     800   0.10481072   -6.8575029   -3.7106341   -3.7984074       100000      0.18429 
    1000   0.10481072   -6.8610506   -3.8173677   -3.9051411       125000     0.183464 
    1200   0.10481072   -6.8626923   -3.8839051   -3.9716785       150000   0.18264667 
    1400   0.10481072   -6.8513968     -3.67044   -3.7582133       175000   0.18278286 
    1600   0.10481072    -6.869538   -3.8387601   -3.9265334       200000      0.18247 
    1800   0.10481072   -6.8716871   -3.9052527    -3.993026       225000      0.18268 
    2000   0.10481072    -6.859015   -3.9721117   -4.0598851       250000     0.182884 
    2200   0.10481072   -6.8676879   -3.8886499   -3.9764233       275000   0.18302545 
    2400   0.10481072   -6.8614058   -3.8100109   -3.8977842       300000   0.18325333 
    2600   0.10481072   -6.8568408   -3.8807623   -3.9685357       325000   0.18340615 
    2800   0.10481072   -6.8555709   -3.7597849   -3.8475582       350000   0.18332857 
    3000   0.10481072   -6.8694468   -3.8110776    -3.898851       375000   0.18314667 
    3200   0.10481072   -6.8650702   -3.8862268   -3.9740001       400000     0.182965 
    3400   0.10481072   -6.8608269   -3.7657414   -3.8535148       425000   0.18325882 
    3600   0.10481072   -6.8789831   -3.9265663   -4.0143397       450000   0.18336889 
    3800   0.10481072   -6.8554688   -3.8638638   -3.9516372       475000   0.18336632 
    4000   0.10481072   -6.8446995   -3.7497833   -3.8375567       500000     0.183468 
    4200   0.10481072   -6.8441411   -3.8305575   -3.9183309       525000   0.18373905 
    4400   0.10481072   -6.8598029   -3.9039162   -3.9916896       550000   0.18368545 
    4600   0.10481072   -6.8602901   -3.7907932   -3.8785666       575000   0.18366609 
    4800   0.10481072   -6.8530577   -3.7968685   -3.8846419       600000       0.1838 
    5000   0.10481072   -6.8550072   -3.9163644   -4.0041378       625000    0.1837568 
    5200   0.10481072   -6.8673044   -3.8616387   -3.9494121       650000   0.18360308 
    5400   0.10481072   -6.8496556   -3.8578322   -3.9456055       675000   0.18372593 
    5600   0.10481072   -6.8502521   -3.6787107   -3.7664841       700000   0.18377143 
    5800   0.10481072   -6.8498635   -3.8063827   -3.8941561       725000   0.18382483 
    6000   0.10481072   -6.8590492   -3.9520178   -4.0397912       750000       0.1839 
    6200   0.10481072   -6.8575266   -4.0185483   -4.1063216       775000   0.18389935 
    6400   0.10481072   -6.8434626   -3.7293493   -3.8171227       800000   0.18386375 
    6600   0.10481072   -6.8595609   -3.7515212   -3.8392946       825000   0.18381697 
    6800   0.10481072   -6.8586742    -3.917908   -4.0056814       850000   0.18389176 
    7000   0.10481072   -6.8709301   -3.8546508   -3.9424241       875000   0.18387543 
    7200   0.10481072   -6.8620243     -3.87425   -3.9620233       900000   0.18397333 
    7400   0.10481072   -6.8607436   -3.8133895   -3.9011629       925000   0.18400757 
    7600   0.10481072    -6.876176   -3.7813319   -3.8691053       950000   0.18388632 
    7800   0.10481072   -6.8658474   -3.8817695   -3.9695429       975000   0.18394769 
    8000   0.10481072   -6.8332936   -3.6097544   -3.6975278      1000000     0.183986 
    8200   0.10481072   -6.8677641   -3.9741199   -4.0618933      1025000   0.18405659 
    8400   0.10481072    -6.844681   -3.8280388   -3.9158121      1050000       0.1842 
    8600   0.10481072   -6.8555419   -3.9003357   -3.9881091      1075000      0.18444 
    8800   0.10481072   -6.8665088    -3.982255   -4.0700283      1100000   0.18442182 
    9000   0.10481072   -6.8621864   -3.9228414   -4.0106148      1125000     0.184464 
    9200   0.10481072   -6.8465198   -3.9350047    -4.022778      1150000   0.18443565 
    9400   0.10481072   -6.8590626   -3.7849299   -3.8727033      1175000   0.18439489 
    9600   0.10481072   -6.8520979   -3.6906486    -3.778422      1200000   0.18444417 
    9800   0.10481072   -6.8731606   -3.9181969   -4.0059702      1225000   0.18441878 
   10000   0.10481072   -6.8794666   -3.8185913   -3.9063646      1250000    0.1844176 
   10200   0.10481072   -6.8580756   -3.7177077    -3.805481      1275000   0.18426588 
   10400   0.10481072   -6.8513041    -3.821488   -3.9092613      1300000   0.18422308 
   10600   0.10481072   -6.8659138   -3.7985385   -3.8863119      1325000   0.18427698 
   10800   0.10481072   -6.8589442   -3.8883425   -3.9761159      1350000   0.18437185 
   11000   0.10481072   -6.8444911   -3.7245234   -3.8122967      1375000   0.18427564 
   11200   0.10481072   -6.8538354   -3.8040535   -3.8918268      1400000   0.18419643 
   11400   0.10481072   -6.8672616   -3.9353879   -4.0231612      1425000   0.18425123 
   11600   0.10481072   -6.8718702   -4.0302408   -4.1180142      1450000   0.18431793 
   11800   0.10481072   -6.8717779   -3.8925533   -3.9803266      1475000   0.18438712 
   12000   0.10481072   -6.8583778   -3.8689505   -3.9567239      1500000     0.184404 
   12200   0.10481072   -6.8338966   -3.8313455   -3.9191189      1525000   0.18442361 
   12400   0.10481072   -6.8474058   -3.6058303   -3.6936037      1550000   0.18450903 
   12600   0.10481072   -6.8519215   -3.8024527    -3.890226      1575000   0.18458095 
   12800   0.10481072   -6.8523321   -3.7995435   -3.8873168      1600000   0.18458875 
   13000   0.10481072   -6.8559873    -3.760108   -3.8478814      1625000     0.184608 
   13200   0.10481072   -6.8681256   -3.6431914   -3.7309648      1650000   0.18456061 
   13400   0.10481072   -6.8624573   -3.8322036   -3.9199769      1675000    0.1845791 
   13600   0.10481072   -6.8655415   -3.8677322   -3.9555056      1700000   0.18456471 
   13800   0.10481072   -6.8587366   -3.8414039   -3.9291772      1725000   0.18458899 
   14000   0.10481072   -6.8621883   -4.0239673   -4.1117406      1750000   0.18464457 
   14200   0.10481072   -6.8668541     -3.78922   -3.8769934      1775000   0.18468282 
   14400   0.10481072    -6.856831   -3.8351665   -3.9229399      1800000   0.18475444 
   14600   0.10481072   -6.8633384   -3.7907517    -3.878525      1825000   0.18476712 
   14800   0.10481072    -6.846575   -3.8081567     -3.89593      1850000   0.18485946 
   15000   0.10481072   -6.8638416   -3.8640838   -3.9518571      1875000    0.1849568 
   15200   0.10481072   -6.8478502   -3.9764564   -4.0642297      1900000   0.18499105 
   15400   0.10481072   -6.8501555   -3.9440477   -4.0318211      1925000   0.18507117 
   15600   0.10481072   -6.8697244   -3.9813784   -4.0691517      1950000   0.18507385 
   15800   0.10481072   -6.8635784   -3.9259274   -4.0137007      1975000   0.18508101 
   16000   0.10481072   -6.8517007   -3.9998356    -4.087609      2000000    0.1851175 
   16200   0.10481072   -6.8447551   -3.6953068   -3.7830802      2025000   0.18513136 
   16400   0.10481072   -6.8504444   -3.7697427    -3.857516      2050000   0.18515951 
   16600   0.10481072   -6.8652931   -3.8931127   -3.9808861      2075000   0.18514313 
   16800   0.10481072   -6.8589446   -3.8351237    -3.922897      2100000   0.18516905 
   17000   0.10481072   -6.8406703   -3.7716534   -3.8594268      2125000   0.18516612 
   17200   0.10481072   -6.8577958   -3.9070121   -3.9947854      2150000      0.18514 
   17400   0.10481072   -6.8527579   -3.8406161   -3.9283895      2175000   0.18514437 
   17600   0.10481072   -6.8472575   -3.8696597    -3.957433      2200000   0.18514682 
   17800   0.10481072   -6.8576727   -3.9907679   -4.0785412      2225000   0.18521258 
   18000   0.10481072   -6.8382443   -3.7106732   -3.7984465      2250000   0.18516622 
   18200   0.10481072   -6.8487825   -3.9020464   -3.9898198      2275000   0.18514989 
   18400   0.10481072    -6.851973   -3.6064167     -3.69419      2300000   0.18510609 
   18600   0.10481072   -6.8627008   -3.8385396   -3.9263129      2325000   0.18514796 
   18800   0.10481072   -6.8635164   -3.9753735   -4.0631469      2350000   0.18519277 
   19000   0.10481072    -6.864962    -3.972431   -4.0602044      2375000   0.18518863 
   19200   0.10481072   -6.8665129   -3.7650711   -3.8528444      2400000   0.18524625 
   19400   0.10481072   -6.8598161   -3.8799581   -3.9677315      2425000   0.18529031 
   19600   0.10481072   -6.8662904   -3.8666644   -3.9544377      2450000   0.18532939 
   19800   0.10481072   -6.8533921   -3.8691168   -3.9568902      2475000   0.18532646 
   20000   0.10481072   -6.8632017   -3.9511075   -4.0388809      2500000    0.1853024 
Loop time of 148.081 on 1 procs for 20000 steps with 125 atoms

Performance: 58346.308 tau/day, 135.061 timesteps/s
99.6% CPU use with 1 MPI tasks x no OpenMP threads

MPI task timing breakdown:
Section |  min time  |  avg time  |  max time  |%varavg| %total
---------------------------------------------------------------
Pair    | 7.8021     | 7.8021     | 7.8021     |   0.0 |  5.27
Neigh   | 16.349     | 16.349     | 16.349     |   0.0 | 11.04
Comm    | 1.1332     | 1.1332     | 1.1332     |   0.0 |  0.77
Output  | 0.0050301  | 0.0050301  | 0.0050301  |   0.0 |  0.00
Modify  | 122.59     | 122.59     | 122.59     |   0.0 | 82.79
Other   |            | 0.2014     |            |       |  0.14

Nlocal:        125.000 ave         125 max         125 min
Histogram: 1 0 0 0 0 0 0 0 0 0
Nghost:        1719.00 ave        1719 max        1719 min
Histogram: 1 0 0 0 0 0 0 0 0 0
Neighs:        11910.0 ave       11910 max       11910 min
Histogram: 1 0 0 0 0 0 0 0 0 0

Total # of neighbors = 11910
Ave neighs/atom = 95.280000
Neighbor list builds = 20000
Dangerous builds not checked

variable	p equal f_ave_p

print	"Average virial pressure from MC: $p"
Average virial pressure from MC: -3.93601490365449
Total wall time: 0:03:18
